% Model:              PicC_fullinst_conductivity.mph
% Version:            COMSOL 5.6.0.401
% Date:               Mar 21 2022, 13:01
% Table:              Table 1: Tsense - Tsense Eval
% Time (h)               Temperature (K), Point: 888Temperature (K), Point: 893Temperature (K), Point: 1116Temperature (K), Point: 1135Temperature (K), Point: 1205Temperature (K), Point: 1321Temperature (K), Point: 1332Temperature (K), Point: 1336Temperature (K), Point: 1568Temperature (K), Point: 1602Temperature (K), Point: 1673Temperature (K), Point: 1674Temperature (K), Point: 1781Temperature (K), Point: 1836Temperature (K), Point: 1837Temperature (K), Point: 2776Temperature (K), Point: 2936Temperature (K), Point: 3174Temperature (K), Point: 3175Temperature (K), Point: 3300Temperature (K), Point: 3303Temperature (K), Point: 3403Temperature (K), Point: 3489Temperature (K), Point: 3555Temperature (K), Point: 3560Temperature (K), Point: 3568Temperature (K), Point: 3585Temperature (K), Point: 3708Temperature (K), Point: 3716Temperature (K), Point: 3832Temperature (K), Point: 3840Temperature (K), Point: 3862Temperature (K), Point: 3997Temperature (K), Point: 4036Temperature (K), Point: 4049Temperature (K), Point: 4056Temperature (K), Point: 4175Temperature (K), Point: 4183
0                        283.0026529106849        283.0025309585932        283.003599040767         283.0048662722127        283.0112764754578        283.00466952986176       283.00287926986914       283.0049319092282        283.0048760154337        283.000007458816         283.00001408600735       283.00000093691244       283.000011128052         283.00001563242927       283.000009256837         283.00000990910405       283.0018603252463        282.99868970933034       282.99837004581576       283.00144908114396       283.0037719477293        283.00357285726744       283.00371004426927       283.00304634508615       282.9981420173487        282.99794803792446       283.0024014913339        282.99785924211744       282.9976675256383        282.9977023630557        282.9990088642552        283.001106280322         282.998490353235         282.99995862744896       283.00269611107484       283.0026444056406        282.9975053282742        282.9975114252645
1.5                      300.4168116348275        300.771778911496         297.0341491239746        297.31043406441285       386.9775438546758        305.2978205145174        302.7781917194255        310.7294491751026        303.44354916276006       282.79467375307837       282.7445858548135        281.4894078321039        282.8569479858974        282.8332056633906        282.84487697716054       282.67599685669563       280.1191746580735        276.860424220935         277.182831106115         279.56916058508114       302.15666049712104       301.0564457414268        291.60213898756564       284.6863538035403        269.8922465853907        274.13156794046944       286.35271588420176       268.5601432970623        272.3817753715152        273.4145222148263        270.10974721666315       278.92591249767963       262.63145336772305       282.77057372802335       280.3111990983951        280.40188059788073       270.68000233453427       267.9826972288265
3                        302.42841932528836       303.62737693964056       306.2689687441695        305.6781374841347        439.18890580094495       327.70607333151986       320.0533259297921        336.3463487846639        306.1058893398996        282.54558665372167       282.40426659535797       280.12235961590756       282.71213471505087       282.6187650254088        282.72291395140485       282.25178262763046       279.32901741539325       274.424775273737         275.96095032087226       279.06924982405627       304.4117704247904        304.4608894552399        291.42091877489105       285.0031806403668        264.98878608778045       267.28083114866257       285.2182911851436        263.5561731480181        264.84677774294045       279.3577470682896        263.6354945518365        276.55280462914885       256.90240945298535       283.7162005384867        277.4533315159742        277.9194452247656        262.0041769845559        261.81250080163596
4.5                      295.5742643206447        297.946067744358         308.1032359029739        306.8814622231832        443.58610950553003       345.62737002895          332.9036489781768        355.8820063095025        299.8599955237284        282.3787673742766        282.14279736573866       279.0475309800214        282.65947751352894       282.452813212445         282.73769388704727       281.8676990988824        281.24718137382575       275.24249065220033       278.1433385599698        281.4845330230227        298.3161249046128        300.9130431654391        285.39043921252187       283.0114100861671        269.8748103681236        266.39976453064384       280.65201977666595       268.187672922624         263.3847947888719        272.39627407826157       262.2384709558801        274.41311001640753       254.18717335062678       284.6655936848996        271.99206655446966       272.4629319161247        265.771822326048         260.43106974631155
6                        283.68351588522046       286.2640417168781        300.782516002493         300.85114024643497       421.2618744910271        348.5807037659104        336.5914944022801        358.7479784012068        285.3285483120299        282.2824743797831        281.94163235057994       278.15252455979123       282.6701340375328        282.3270051084162        282.8340234345061        281.5311043050414        283.3928151987716        276.6575744868712        280.3976998353285        284.05256315367          285.2226095743813        288.153404728303         275.01582754261557       275.31127964849964       276.43421442771694       269.65979705254136       273.48938503768943       274.744586592015         266.3278044951553        275.11189024613464       265.1544619038552        272.090635975516         253.20006715414107       285.7147571287881        264.3476160933076        264.75431604449244       272.19457141175974       263.33869704567195
7.5                      270.92195098852          272.60960459565837       287.33742765650635       289.076310314575         385.33373863579635       337.25310117400244       331.06360976824675       345.6482902069589        268.37290643138243       282.0956050821436        281.65391325922724       277.0743948752894        282.5911737656396        282.14150507663356       282.79168149015663       281.1319073413453        282.09149675859464       275.9677681971241        278.586953627831         282.4477365828039        269.8665824300475        271.9066087077026        264.11810612050317       264.6711533273404        271.57964742430084       270.10287863178183       265.9864547986982        269.8795798414095        267.1102970341852        269.21717121449956       266.0216431096805        268.4534628647488        250.88491790842133       285.1651222388321        256.7999050489105        257.0553779134308        267.5645548806285        264.3659219313289
9                        262.1568531049203        262.53815415597944       276.60914237790104       277.6440149270685        353.2521603368242        326.91117456516537       321.9176247455005        333.54170794585997       258.97645153275073       281.7041568424629        281.19918356935125       275.62519848327645       282.3029629822342        281.84004802655716       282.50085377195074       280.6005860201589        276.57977433469335       272.6907143734875        273.2899400401233        276.72267498428124       260.3575322116275        261.9648085128055        257.3184361190737        259.34796898403266       264.0139499490637        263.84435818981586       261.74637652794416       262.44192824466904       261.621084015025         261.62817722799434       260.69874196110027       263.72091759234223       245.22770763961216       282.58485204154016       252.3536716798409        252.41173488281856       260.4864296896765        259.4759149820008
10.5                     256.47235675177495       256.58433832636723       268.81901143409556       269.3861797510796        330.6522867874541        317.79233800162217       313.66195650211085       323.1030625963666        253.66699348128301       281.2427491671703        280.68271234972855       274.13241675124357       281.95158943309343       281.4927309899724        282.14917389802207       280.01003135730645       272.1982555076585        269.8929492756694        270.0527930004463        272.6297448720823        255.25072489032655       256.84303419174034       253.4475035675088        256.9687027691565        260.9305627326343        261.0475405435565        259.80376119689646       259.54158742799564       259.2964757700138        258.76388319293926       258.5272048154381        259.9183048344386        241.74193715708134       280.21932331718364       250.35361734452295       250.37064288844365       257.8962518407642        257.57962756789317
12                       252.80711485685882       252.84728377479973       263.15183213533663       263.4526661965174        314.1302895089377        309.83994525293514       306.3557331467689        314.17759833265023       250.55056289465492       280.74155809268433       280.1300884214997        272.6464747633868        281.56192447161766       281.1161553176866        281.7641086006524        279.3805233458604        268.89173134605073       268.00877338184887       268.06405543869766       269.7216555394059        252.3077517702348        253.94512649859723       251.21487638724162       255.87881267034052       259.5933835393886        259.7537997391138        258.92673301475963       258.36098387363995       258.2825865413546        257.6519028333836        257.62288151539076       257.0081693723755        239.67870766774183       277.97973018320255       249.46785754624815       249.47325742858695       256.93643405557384       256.8378388744234
13.5                     250.34805273342533       250.3638475119274        258.9024151965347        259.0570593746622        301.4418562858831        302.85701630210895       299.8772027546943        306.4631924399369        248.59241047483715       280.2180639671058        279.5575349152325        271.1834927465111        281.1484214654644        280.721117399052         281.3589786122708        278.7273902926715        266.29626414463934       266.74961450538956       266.7751935890087        267.51135997114926       250.48423186378824       252.15831010282403       249.84496716848463       255.33054443265075       258.93008589655057       259.08439023005343       258.5038528420179        257.8199888483539        257.79115224677423       257.17351538960787       257.20824477126524       254.78224971250378       238.41834277991424       275.8762525899924        249.05342807565205       249.05453000931024       256.54972969397454       256.5225518485764
15                       248.66796995578937       248.67387686879852       255.6699259605802        255.75070075955324       291.4488055213769        296.71247871101326       294.1351587565103        299.76625871417895       247.32238158429175       279.68098693798964       278.97345296534036       269.7504730470523        280.71836408088564       280.31318945378484       280.9400702172681        278.05916219777157       264.18911065491346       265.8871947910394        265.9020137920989        265.7426944853489        249.316582451538         251.0127541797374        248.97606478833893       255.0352629445089        258.56271367879987       258.7045549274283        258.28980485387507       257.5460394065725        257.53129779127545       256.9492205399337        257.00244340889765       253.08113816090952       237.64114985542238       273.9100308404563        248.85326177038516       248.85254314632712       256.38348445035876       256.3793978819806
