% Model:              PicC_fullinst_init.mph
% Version:            COMSOL 5.6.0.401
% Date:               Apr 12 2022, 15:02
% Table:              Table 1: Tsense - Tsense Eval
% Time (h)               Temperature (K), Point: 950Temperature (K), Point: 955Temperature (K), Point: 1264Temperature (K), Point: 1283Temperature (K), Point: 1353Temperature (K), Point: 1469Temperature (K), Point: 1480Temperature (K), Point: 1484Temperature (K), Point: 1716Temperature (K), Point: 1754Temperature (K), Point: 1825Temperature (K), Point: 1826Temperature (K), Point: 1933Temperature (K), Point: 1988Temperature (K), Point: 1989Temperature (K), Point: 2928Temperature (K), Point: 3088Temperature (K), Point: 3338Temperature (K), Point: 3339Temperature (K), Point: 3464Temperature (K), Point: 3467Temperature (K), Point: 3567Temperature (K), Point: 3653Temperature (K), Point: 3719Temperature (K), Point: 3724Temperature (K), Point: 3732Temperature (K), Point: 3749Temperature (K), Point: 3872Temperature (K), Point: 3880Temperature (K), Point: 3996Temperature (K), Point: 4004Temperature (K), Point: 4026Temperature (K), Point: 4161Temperature (K), Point: 4200Temperature (K), Point: 4213Temperature (K), Point: 4220Temperature (K), Point: 4339Temperature (K), Point: 4347
0                        273.99959812506415       273.99945829738147       273.99952483702833       273.99947951122806       273.9999305994416        273.9999227608519        273.9999450191015        273.9998991149538        260.001292142254         280.0000037178286        280.0000051767598        280.00000121728635       280.00000398195704       280.00000459198964       280.00000700678396       280.00000337457504       280.00199156849317       274.00169902616193       274.0016917155533        280.0017123984354        260.0017532355564        260.00131473985545       260.00142003479425       273.99906937208226       260.00250251073226       260.00250897126494       260.0013764947732        260.0018350668822        260.00183556174954       260.00142331151585       260.0014278658096        274.0021656647662        259.9995475018639        260.00001379578174       250.00150358452558       250.00148264851936       250.00199715698298       250.00201549843305
1.5                      273.9435260570736        274.0476048493725        273.9217548240857        274.08300871053564       273.8670058488282        273.7092054117357        273.6734835773871        273.588769533398         269.5445104393306        279.80350827014615       279.77645879550545       278.53574965511865       279.84026084110053       279.84927712604133       279.8459123060745        279.72051871370405       277.1503868553434        288.24392591402614       288.2846552090425        277.475186197081         269.56799760538877       268.63600010672445       267.33952286303077       269.1873379479507        271.15153112340715       271.1388988436819        265.6213730782118        268.40108886652854       268.4772581027237        265.742719234996         265.7185120438339        269.3994757063489        249.6621357529853        260.01289212802845       251.4117266803008        251.46580067629898       255.23147776551363       255.2606965366711
3                        274.8434710416283        275.44260266201525       274.35795666364515       275.11508896606904       274.13263706964875       273.65883350614683       273.6955429963905        273.5748902114118        273.344648802923         279.54759900871016       279.484264298362         277.0996615705744        279.64600823710003       279.6553910380446        279.65749068417364       279.3705994482685        275.3998823045254        290.10818626522683       290.3926434541813        275.8747045906522        274.0298178364499        272.9458902728788        270.4173558828057        269.827954075379         274.2032278707055        274.38035026607486       268.44587649542626       271.8983863102838        272.1784961072272        268.8949028060426        269.1588013893663        265.04110567247875       246.08512716920853       259.6045621682756        251.87846593497          252.32491650242488       257.9689402222037        258.0138220058312
4.5                      275.105504955688         276.1633854171745        274.12583841587383       275.64575492515075       274.205744905938         273.62587940347794       273.819469838333         273.6729934161438        274.607029206168         279.3091233974343        279.2089481855299        275.7472829232827        279.46545168439053       279.4705057233268        279.48476666237264       279.032007720476         274.84942146763916       291.1414436546592        291.649645941836         275.4279037549911        276.03179764380235       275.0089260027905        271.6416041828302        270.391355625799         276.472719805025         276.8959002045908        270.01776590269276       274.41031418803504       274.9088459413257        271.2372689020945        271.82732791983          262.2869368247773        244.52004646790814       259.254654326174         252.09384082557534       252.89215047481187       265.24020766121987       260.0525745107933
6                        274.51162360508          275.77153390949          272.9521064808849        275.0604707109155        273.76662169605714       273.47611495026257       273.86066435814456       273.69818960157914       273.99850755705245       279.0935151179349        278.9584337943096        274.47728886548026       279.3018890288332        279.3003166868996        279.33189643659375       278.7153482711739        274.87917984273525       292.16105188077586       292.9329036134563        275.58881826088566       275.92569412659185       275.1010063360872        271.4809172589156        270.17992736383          278.26526767237783       279.3777501319435        270.27134158282956       276.2498563249198        277.4768745899221        273.0021681811346        274.46029263315637       260.58354066022207       244.11295413184635       258.9835061649605        252.51423544336404       253.3925375509445        273.3784529040624        262.36893189656234
7.5                      273.24593990556235       274.1006145757097        271.25893446561696       273.290336673025         272.7347460243875        273.15329540006286       273.65059772805074       273.5135038024637        272.2563689765303        278.8808704950819        278.7129928426575        273.24705952220745       279.13809929298094       279.1312721447433        279.17584230403463       278.404622152226         274.71758586639277       292.4592604181944        293.141448048159         275.4427727619102        273.8134022544255        272.9945644597582        269.9448114918928        268.36282141626174       278.1717945561074        279.5715293665841        268.1024791029015        276.2013162677931        277.7540666906413        273.03522578434894       274.90072889851564       258.982885395708         243.60826057744228       258.6486549282652        251.84729058615474       252.38011657677276       269.7631601871448        262.9730656208936
9                        271.7078030519828        271.973141852241         269.60186436384726       271.09400627488833       271.38903374629984       272.68189417331934       273.17988255257785       273.10815998489505       270.2479890400367        278.6475179336886        278.44709195004003       272.0163981310947        278.9547399733793        278.9454787190319        278.99217213352983       278.075917943655         273.96941013632306       291.5862897860213        291.8121683920154        274.5121888987194        270.99777731256165       269.93198920869554       267.5404990240208        265.3239493099945        276.06223282021375       276.719690989785         264.37111214414915       274.1777378438883        274.90203210373704       271.2198120827507        272.1637769871361        256.92678643200304       242.27734498762302       258.13343552377216       249.72451554968677       249.88536407499706       262.9443666321301        260.9057073065561
10.5                     270.36322824806814       270.4586022230758        268.1130520324266        269.1898850250974        270.0175649311361        272.1099592569192        272.57400263848365       272.5659267069425        268.5632293299857        278.3972576744318        278.16407563379954       270.8032935008182        278.75643282775917       278.74590014127705       278.79123090363936       277.7308833841162        273.08155960325087       290.6293336912024        290.70297612278915       273.48814620487815       269.04508442245583       267.87555026774595       265.6107870993138        263.11143160622845       274.3868900269272        274.70333716949045       261.9073559020151        272.4936472196708        272.80693104173776       269.65707034896417       270.1101942705257        254.94749891546695       241.18492259065138       257.5394316198           248.31047646696877       248.36264437383517       260.0622835382801        259.45588999998796
12                       269.24863694183347       269.2879586389482        266.7943724129091        267.5868817507854        268.6851324689393        271.46903333537387       271.88456938262857       271.9353509969205        267.18644868464435       278.1339680846159        277.86784911512393       269.6148454362578        278.546355845438         278.53530851281954       278.57800840830726       277.37259837188736       272.2046397268026        289.82325336366404       289.8451598820562        272.53750800300827       267.5658713507729        266.36418359410953       264.1395321865962        261.56753513415623       273.14881511865764       273.32468110132504       260.24961687578593       271.22700355777283       271.3555057344058        268.4667705028632        268.6843558921198        253.18139409333142       240.34104027090603       256.90639520636694       247.38194547857853       247.3960125791822        258.64852621319716       258.47155768477234
13.5                     268.3348182877008        268.3532476825536        265.6421426176506        266.248536480826         267.42810371545096       270.7872780267917        271.1497324504178        271.2554613885326        266.0657131447072        277.86073995230333       277.5617053324976        268.45403938117545       278.32682393957487       278.31589672058476       278.35547796216935       277.0040138301697        271.3830420733201        289.17990990708716       289.1834755110959        271.68656093602004       266.4066310185735        265.20727412107146       263.021631948558         260.4807014441695        272.23296143556007       272.35290103716926       259.11117526119244       270.29648751712944       270.3450849790517        267.5955428279662        267.70403971289556       251.66540308372558       239.70721056777177       256.25954125289616       246.76502166242622       246.76372350541467       257.85890504150314       257.8042297077972
15                       267.586267092865         267.5957702335555        264.64623498713087       265.132051368422         266.2648612944496        270.08754722034183       270.3971908076033        270.55558800345364       265.15423201759637       277.5799751278518        277.24825119569164       267.3220543748092        278.09961805584027       278.0893765801191        278.1256254293783        276.62766115481855       270.6240435295365        288.66263432334097       288.6589203182925        270.92393359911296       265.48404926538694       264.30311722967656       262.16420460694803       259.6974376978417        271.53872479593343       271.6356869148571        258.30902204127204       269.6081404201484        269.62203440536865       266.96080493336007       267.0182271517123        250.38985592745632       239.2358108398335        255.61447378798064       246.345013512933         246.33669387370378       257.3678234644537        257.3441682801024
