% Model:              PicC_fullinst.mph
% Version:            COMSOL 5.6.0.401
% Date:               Feb 27 2022, 08:44
% Table:              Table 3: Tsense - Point Evaluation 1
% Time (h)               Temperature (K), Point: 402Temperature (K), Point: 418Temperature (K), Point: 426Temperature (K), Point: 434Temperature (K), Point: 449Temperature (K), Point: 453Temperature (K), Point: 550Temperature (K), Point: 554Temperature (K), Point: 582Temperature (K), Point: 594Temperature (K), Point: 602Temperature (K), Point: 606Temperature (K), Point: 614Temperature (K), Point: 626Temperature (K), Point: 645Temperature (K), Point: 649Temperature (K), Point: 823Temperature (K), Point: 850Temperature (K), Point: 859Temperature (K), Point: 985Temperature (K), Point: 1906Temperature (K), Point: 1950Temperature (K), Point: 1988Temperature (K), Point: 2033Temperature (K), Point: 2061Temperature (K), Point: 2091Temperature (K), Point: 2288Temperature (K), Point: 2526Temperature (K), Point: 2657Temperature (K), Point: 2745Temperature (K), Point: 3057Temperature (K), Point: 3104Temperature (K), Point: 3119Temperature (K), Point: 3135Temperature (K), Point: 3143Temperature (K), Point: 3151Temperature (K), Point: 402Temperature (K), Point: 418Temperature (K), Point: 426Temperature (K), Point: 434Temperature (K), Point: 449Temperature (K), Point: 453Temperature (K), Point: 550Temperature (K), Point: 554Temperature (K), Point: 582Temperature (K), Point: 594Temperature (K), Point: 602Temperature (K), Point: 606Temperature (K), Point: 614Temperature (K), Point: 626Temperature (K), Point: 645Temperature (K), Point: 649Temperature (K), Point: 823Temperature (K), Point: 850Temperature (K), Point: 859Temperature (K), Point: 985Temperature (K), Point: 1906Temperature (K), Point: 1950Temperature (K), Point: 1988Temperature (K), Point: 2033Temperature (K), Point: 2061Temperature (K), Point: 2091Temperature (K), Point: 2288Temperature (K), Point: 2522Temperature (K), Point: 2653Temperature (K), Point: 2741Temperature (K), Point: 3053Temperature (K), Point: 3100Temperature (K), Point: 3115Temperature (K), Point: 3131Temperature (K), Point: 3139Temperature (K), Point: 3147Temperature (K), Point: 635Temperature (K), Point: 651Temperature (K), Point: 659Temperature (K), Point: 667Temperature (K), Point: 682Temperature (K), Point: 686Temperature (K), Point: 795Temperature (K), Point: 819Temperature (K), Point: 863Temperature (K), Point: 891Temperature (K), Point: 913Temperature (K), Point: 917Temperature (K), Point: 931Temperature (K), Point: 955Temperature (K), Point: 996Temperature (K), Point: 1008Temperature (K), Point: 1247Temperature (K), Point: 1278Temperature (K), Point: 1289Temperature (K), Point: 1447Temperature (K), Point: 2525Temperature (K), Point: 2585Temperature (K), Point: 2631Temperature (K), Point: 2678Temperature (K), Point: 2717Temperature (K), Point: 2760Temperature (K), Point: 2957Temperature (K), Point: 3047Temperature (K), Point: 3106Temperature (K), Point: 3472Temperature (K), Point: 3479Temperature (K), Point: 3498Temperature (K), Point: 3514Temperature (K), Point: 3522Temperature (K), Point: 3530
0                        273.0008174845829        273.0007363814424        273.0007551680374        273.00073610806913       272.9981511949736        272.99812138390587       272.9918855625912        272.9916434386127        272.9996359354344        272.9955309351589        272.99727476032          273.00012212149437       272.99631915602686       272.9957828499333        272.99610835098713       272.99606718688415       272.9994726428177        272.99958764105685       272.9992367017162        272.99654595460964       272.99801803528385       272.9975813970539        272.99800867031547       272.99861962995806       272.9982251830621        272.99840155115504       272.9754530706649        272.99893156153684       272.9747979089254        272.9943285468973        272.9745659765609        272.99640896137663       272.9948361341633        272.9987529570292        272.99474057594915       272.99862645044027       282.99881346925656       282.99898050436116       282.9991462401673        282.99937518669464       282.997672146335         282.99776813429196       282.995563889897         282.9953011687132        282.99273444691545       282.993096744105         282.99295254084655       282.99809993987486       282.99144904399503       282.9940130237606        282.9918704142189        282.99059085128175       282.9984185640607        282.9982215267619        282.99768466410274       282.99469190940124       282.9987362651929        282.9986488188804        282.9987698752433        283.00002545115336       282.99988398846335       282.9999073493497        282.9116887883972        282.9984436888072        282.9112666023327        282.9108700864816        282.9947153110074        282.9928613955516        282.99699423964927       282.99718641680624       282.9973532407176
1.5                      256.1487888355115        256.8651058929779        256.645391170076         256.4809433614932        251.68992557657256       251.23162882122762       239.8326328351449        239.22785296831623       255.583490946338         251.6193966046921        253.75883387646908       256.877412866947         263.37406728683607       257.66489248794437       247.5828945700748        247.3257078563755        264.4541421008713        266.7582805916287        264.88996044803133       247.2927365474974        245.26739094288402       244.7273781585637        245.24032274823705       263.4548505381946        262.7466237695581        263.39767464821114       259.4764093121981        245.41966626100736       258.5870883357578        229.44375142994176       258.31847781526466       249.38275767200966       247.77505135752347       257.8960039907735        248.4656761625013        249.19427442319915       259.3093389439064        260.8889057153834        261.527962258416         262.74505762955874       263.8562408550317        263.61274251807083       252.90515923021292       252.42745336181324       260.5970618158663        259.90982755145234       262.36330574659036       268.3986426032177        267.21754040719253       266.2198721573707        252.3461276609194        251.74137854552677       269.7196444020956        270.4966875451977        270.07696607034325       252.58866052782042       251.5277822498752        249.62510885340603       251.33734591376006       279.7402789114823        279.4550812051459        279.3435958373106        180.03814874358093       247.7808609215638        182.88386486949878       173.96219049491154       252.42158783001202       253.89488335437972       263.83284802556955       256.1161115795187        256.9437242417701
3                        244.60857761535632       256.24475424376686       255.67604913741468       255.0942605884904        241.1991325393486        240.8018057294961        238.42182888907655       237.83102806684388       266.90276411139865       257.21304408885464       262.2621841348475        263.8370697787466        266.51384050392573       262.4558170369697        247.13386319938527       247.65260580015214       259.5251255830971        267.4255399978705        266.1039946998352        240.80310498420295       227.41964795445583       227.05497413653183       227.39696591650016       254.48003393898017       253.4570783242677        254.41640275606485       252.39796008151666       239.285602683344         251.41586792940308       226.26323184907076       251.3145659857065        245.1964041599939        250.730019755931         244.89877356223602       241.51037229779908       240.8860809125624        245.41407548610346       259.81716567998444       260.4010819102131        261.516746369158         257.5107924615869        257.23387211777566       255.12993033270277       254.21767231796034       263.723072832298         262.7487059907828        268.3179705285758        277.23662472840266       274.8364804930092        272.92647181782985       249.43893897822718       248.79249367583168       263.0782934613718        268.86029834827406       267.39150023117145       245.22702782176415       235.15851119468067       232.41912860204224       234.69011149910435       275.48376355189333       274.8406928904787        274.7438604370518        170.35883145712774       237.08974516383924       173.54372630167495       163.75494534850597       245.84194498892006       249.7413474702856        254.34631398309793       245.80406462497518       246.66021004951074
4.5                      241.21572652169107       252.16908360276565       254.4763282130048        250.56275063373104       235.37575550429338       235.05629142848713       242.55218818598175       242.1289376326768        271.051156068383         260.7884010985263        260.291852946706         266.6889654971094        274.9973274253283        273.49438759153526       257.00774003232186       256.68812690491717       265.8099861909617        270.14595539098923       271.90229140475776       243.22145638320757       215.56349138853827       215.4075257559463        215.54450506048136       246.44112001058343       245.24982318204823       246.38415602677827       246.46370845215336       235.40845286787072       245.43460707603506       230.90338023442584       245.4343841599096        247.60513377375483       252.20268041277703       241.02520301185567       239.18124671496182       237.96727503913982       242.09040655640462       261.6459913102654        262.19557183350673       263.0595181743104        255.22496799612247       254.9528328120594        258.0786933352208        257.8002141997952        265.82242031151367       265.90520812041336       274.97243738273          283.6105910784962        281.7508169771556        283.86339197896257       255.5067763156268        254.75847369630887       262.9497180196519        271.9449267250783        265.6569796406115        246.455784329072         225.50266526485584       222.48461304124274       225.04984118785413       271.2151379768438        270.3711649547307        270.35918809813285       166.76212982403894       233.63387123610863       170.1379486810809        160.4690766422704        246.41443006580994       247.73479620105985       250.00160403401622       243.0532742355743        243.79868141210017
6                        241.94145255971935       245.41207972347573       244.23972850100856       241.175353364948         231.58415804229205       231.4383102647922        245.45354654163805       245.3274763924116        270.1303618273363        261.57630520824074       262.8915182562495        276.0047055806708        283.96982287700115       281.9838869345853        263.35617676927995       263.10724026525156       273.77995488233137       278.774232386802         277.1394285627274        249.22840946739439       207.06482321490108       207.06419438593247       207.0548934523761        239.2254889658073        237.93306349357164       239.18375996484346       241.1232133555256        229.62670063882226       240.0937445461174        234.08384863358017       240.22490698792333       252.99119615642428       245.33426774976277       251.04632608093527       240.55631645699395       236.91773122032438       240.39533317455758       260.9693298621518        255.9345561636933        262.2285607556904        253.99134023086108       253.73332554386772       258.29594072047735       258.2231373636378        264.54153866090275       266.28906586350007       277.1402159548758        285.07390487025344       285.3018299367813        290.12220962298824       261.0496382715404        260.4802443606643        264.66978468960434       275.57455738875456       264.80206000499805       251.0208810109888        218.4082907202674        215.38713076213983       218.16820433060093       267.07809738409867       266.14993849356347       266.2572933635079        164.00743597798413       230.9323184146291        167.6371751442067        158.2773731076077        250.35248319843265       256.6164678200014        258.30566445802043       247.6898898278996        248.27857680512716
7.5                      244.32177173710247       245.31818086730786       238.90630976891998       237.01951830280137       228.88185280863905       228.84357636634869       237.53895493739242       237.4710864368067        256.6394016237823        251.56107777658409       252.1592088778722        260.21712265337334       265.204426723785         264.4618469100358        249.06429495455117       249.0285893681569        269.6808677940154        274.83841246720164       271.7016319234526        242.5342383404634        200.32441672039897       200.30325057334798       200.32198206654073       232.7751390656031        231.42343394620298       232.75049971484643       236.2459420192622        225.00643456384242       235.23682825999745       225.1270557829574        235.49826596311118       245.8602428487876        245.62943068553957       241.99859147889768       243.2252896559138        235.8017106237748        238.77119908914884       250.630972897172         245.00194951296507       251.95761012684662       253.1569522799486        252.90462109799685       247.4939476201026        247.47062269927326       252.17927317657882       255.19858002675028       263.065289860605         268.7641987362206        269.25846361981803       273.00340000330084       249.31004718341478       249.13763785199507       259.04391946247716       269.4694262457228        258.37133551117046       243.15216768372258       212.80792215358807       209.83953143445248       212.8167891477184        263.0937338474389        262.0898564498046        262.3676701075939        161.66763359060135       227.43635353345664       165.20644417537798       156.3912638477935        242.58416204054666       248.55713383354427       249.8258355831699        246.94523769732328       247.5478971718158
9                        238.92065562217365       238.68087622799973       236.0417601944642        234.4894053970034        226.6271949911443        226.61537145411495       227.96417279054805       227.91605439929083       243.99949837996706       241.1340546847535        238.29107219060447       240.41770243500184       244.02574417831593       243.8260100009776        230.7914592158466        230.83773654939955       257.5562690445107        261.900669704084         259.26377045534116       229.26726868852364       194.11923875750787       194.02041513179046       194.11743084517252       226.95230260514472       225.5645554689219        226.94041661553302       231.75672539401458       221.13491431811926       230.7583171532697        212.9105370538519        231.07684083596314       232.56880814251895       239.44753515493755       237.6230692472716        237.51551536006048       233.9658813019842        237.63576260483225       241.7814410577291        240.44271739486538       243.12377228862115       252.48025913259727       252.2229789615261        237.60892091358977       237.5932757697947        241.50516921996507       245.11953881943103       249.1388391560578        252.6528412450446        252.48955948796822       255.25291317406484       235.10072907342996       235.08325723415587       249.44061495326568       258.407865424092         248.92410249502288       231.2607761652858        208.2607988218963        205.29281096270364       208.44525814317356       259.36554246641714       258.24655887019634       258.727618467511         159.7806663143873        223.9387493872981        162.94184543057347       154.7300013915786        230.9983083188082        240.8727603172864        241.5489942402553        241.0515089358981        241.67860763659587
10.5                     237.01566191660157       236.2967015003957        234.72346960358254       233.1914138611828        224.8701708400251        224.86517677706357       224.4488575458367        224.40694316100598       239.48626028382625       237.02718128991853       231.76121763015914       232.13899210293812       235.99917016416285       235.9423387144873        222.91801232514464       222.988528550453         247.96205947061821       251.89165101691984       249.55716563050083       220.86006472029314       188.88370973705875       188.77700977268964       188.88222076192034       221.73631274688012       220.32882949584234       221.7350940847108        227.65627826156043       218.5917914580171        226.64937528119228       206.9956470785017        227.0321376409811        224.19543397385644       237.32168547576777       235.9129597495462        235.35443000518097       232.89760258026942       237.03532351634732       238.67964388793564       238.599423514622         239.92034238923134       251.948143961871         251.68465974110316       233.9921203416807        233.97971182581188       237.54159041675968       241.40432152763543       243.38267143664868       245.88363103059473       245.4873060489123        248.05064057264818       228.4024314500287        228.40366920643592       241.43192170255233       249.49760218042863       241.0408865278895        223.4853564405065        204.57243023352845       201.56641321968974       204.86805473131537       255.95137333469404       254.68742766802998       255.3860796055271        158.22305240854135       221.5343056360946        160.98695502149835       153.28512888362468       223.3940020890601        238.21209222252048       238.63213456127994       238.81515970802548       239.3893846600197
12                       236.18347976353502       235.22699960063528       234.02381854344685       232.44475818320484       223.49670018473256       223.49426517087258       222.8628996763287        222.82328832630407       237.48940711042923       235.04833191999717       228.144568459589         227.7561502440077        232.03007080159188       232.0258126483769        218.58655186976839       218.67064848364822       240.16995188420032       243.89293051257624       241.73952899749517       214.95482176646507       184.43130422055495       184.33420284895544       184.42996655112827       216.96873835608443       215.54969089576394       216.97640526377788       223.8415609477341        216.87478326811956       222.81638317067203       203.70453421584747       223.26581640967396       218.33928966378696       236.4094499544529        235.10199290163484       234.33655017660078       232.2453637484616        236.71353106689654       237.41405959853606       237.7348515301981        238.51878419417278       251.52964494445493       251.26056806462958       232.48326469747417       232.4723061973409        235.8510461444679        239.7958317403922        240.52034917921313       242.43320133375894       241.94445685869283       244.39797398040463       224.69612615107926       224.70041300886732       234.8067006203361        242.32373036349802       234.5109474088185        218.11750004695446       201.48659765615935       198.4275178875381        201.85440570658992       252.82136700372672       251.40151543571804       252.31519797163486       156.87561075584446       219.93961617416699       159.2984471212459        152.00307794173668       218.13201768109457       237.15888779818454       237.43630879334785       237.81785950462634       238.314177432016
13.5                     235.81226312199558       234.7320980089644        233.64574607549739       232.00782583660904       222.43976028739922       222.43834426371856       222.13897079266852       222.10013108377373       236.58984282841496       234.07697514049153       226.0868430480482        225.3258537768928        229.9596198538457        229.97190030369143       216.04111602631008       216.13392914298265       233.82598907154284       237.48028165695274       235.42023202456426       210.71194636320263       180.64585597558238       180.5629982498889        180.6445936512704        212.5948248365045        211.1688681408215        212.6096897028256        220.27829569866077       215.7273827984042        219.22885727171402       201.84003882995978       219.74450377370226       214.15077337265328       236.00955365780447       234.70696194892247       233.8385131232408        231.84777277238138       236.53505826713896       236.84297195737875       237.28351881041758       237.81628860899966       251.19759360185623       250.92373007625235       231.80470902554396       231.79443869654926       235.0676649185392        239.02383075819057       238.93408116455768       240.46834334120402       239.94004019857988       242.31182430012763       222.43857152896155       222.443167483149         229.30576346606236       236.50590415441187       229.08333002910183       214.27796698235076       198.85640550179494       195.74010138850423       199.27250841732302       249.94822913461527       248.37131014950808       249.4903647336821        155.6833333987885        218.88185929662964       157.82287656453934       150.85156687760423       214.36318138553494       236.70504751066252       236.89350922773713       237.31874691612555       237.73683686787655
15                       235.64103833107964       234.49339002413646       233.43520066497328       231.7441645399049        221.62933761663697       221.62835721666707       221.8044048104706        221.76576658974153       236.17572452076652       233.58908764632164       224.88760585738518       223.9312127908678        228.83417580532412       228.84756022095272       214.45747522997016       214.55625318535587       228.63704051035444       232.31472283955418       230.2850899960061        207.60706612170756       177.41542450078148       177.34715473546396       177.4142017880604        208.56734108309104       207.13681403152177       208.58785369483954       216.93886252733694       214.9611254424353        215.86165640457548       200.76338478604075       216.44155714039653       211.10026625699132       235.8282619480665        234.50694796870152       233.58284069831382       231.6009396950002        236.43320005889709       236.56749495929094       237.02966435439873       237.42682220742844       250.93150401454824       250.6535727180905        231.48853901360175       231.47862114136356       234.68812776556663       238.6289413448017        238.0025702309608        239.28519987680238       238.73997659799068       241.0486733262984        220.98884410791615       220.9930651046871        224.73418473607228       231.77780842924287       224.56883990824662       211.48626348380785       196.59271519609658       193.42006384005762       197.04171372763733       247.31210456514785       245.58195085755398       246.89374086815724       154.61580281195026       218.18090915314278       156.51978090926812       149.80979965480824       211.62086067497057       236.49956438022596       236.629632697491         237.04768856688173       237.39587166272653
