% Model:              PicC_fullinst_init.mph
% Version:            COMSOL 5.6.0.401
% Date:               Apr 7 2022, 09:16
% Table:              Table 1: Tsense - Tsense Eval
% Time (h)               Temperature (K), Point: 950Temperature (K), Point: 955Temperature (K), Point: 1264Temperature (K), Point: 1283Temperature (K), Point: 1353Temperature (K), Point: 1469Temperature (K), Point: 1480Temperature (K), Point: 1484Temperature (K), Point: 1716Temperature (K), Point: 1754Temperature (K), Point: 1825Temperature (K), Point: 1826Temperature (K), Point: 1933Temperature (K), Point: 1988Temperature (K), Point: 1989Temperature (K), Point: 2928Temperature (K), Point: 3088Temperature (K), Point: 3338Temperature (K), Point: 3339Temperature (K), Point: 3464Temperature (K), Point: 3467Temperature (K), Point: 3567Temperature (K), Point: 3653Temperature (K), Point: 3719Temperature (K), Point: 3724Temperature (K), Point: 3732Temperature (K), Point: 3749Temperature (K), Point: 3872Temperature (K), Point: 3880Temperature (K), Point: 3996Temperature (K), Point: 4004Temperature (K), Point: 4026Temperature (K), Point: 4161Temperature (K), Point: 4200Temperature (K), Point: 4213Temperature (K), Point: 4220Temperature (K), Point: 4339Temperature (K), Point: 4347
0                        273.9996459447584        273.9994843865304        273.9995369459742        273.99949152376365       273.9999312573788        273.9999234542017        273.9999451854316        273.9998991789835        260.001424013819         280.00001061395386       280.0000101906907        280.00000734643487       280.00001700273026       280.0000141379508        280.0000169117489        280.00000509386103       280.0027995784487        274.00105161440416       274.001047227812         280.0020943557099        260.00178771183994       260.00132659300635       260.0014425153544        273.9990715422506        260.0026190597764        260.0026263285619        260.00137945714266       260.0018799220657        260.0018801129167        260.0014354658665        260.0014401132767        260.00403916789827       259.99954757825435       260.0000137390605        250.00150814776157       250.00148813068898       250.00200765291538       250.0020260647745
1.5                      274.1630644612508        274.27395411475663       274.02963012317923       274.2135402141026        273.75650866912423       273.73022861006314       273.69860472524266       273.5616511903426        269.91432683444697       279.87150578973814       279.8396024764155        278.64619064337865       279.9182074024825        279.8970599781066        279.8949063958751        279.7804422643765        279.3979624318462        280.88917313450645       280.95544266235356       278.6512026214651        269.15413186225237       267.9413496002403        266.35804289256066       267.75143229745333       267.7500606698888        267.7657808494186        263.97156075340365       264.1397935187959        264.2299211584583        261.16265561850133       261.16487490405          260.21100652315005       249.65410538471153       259.9139467562556        250.7017351433084        250.76630454441803       251.9342734261432        251.97928109340202
3                        275.01664154652804       275.6217401549621        274.51928029831004       275.27361080481563       273.819762220307         273.6671114871878        273.6947555937314        273.4247708770519        274.0611687282538        279.6786284853836        279.6032543217048        277.29564722259056       279.7955675773291        279.74458231974137       279.74722425833517       279.4855171167554        277.99818579194766       280.96886313441223       281.28407351971          276.9644323221718        273.71474152931967       272.13417054903175       269.0606245438939        267.2491540165457        269.6017702946136        269.79099029799755       265.88503509541096       265.86567986144155       266.16241311988455       262.21470224821786       262.49525762270395       257.74285076050126       245.38256498005816       259.36346722397036       250.69231507811293       251.145871302603         253.1446568548556        253.2014061997011
4.5                      275.10687451663006       276.1652049663239        274.2202500631524        275.74181272699417       273.66570373546597       273.62154229812387       273.80688014336425       273.40317778111074       275.04780583353954       279.49409685594173       279.3728005236894        276.02624814202267       279.6786041457433        279.5931445582565        279.6078193468679        279.19046064072427       277.6759427810221        281.2362375570348        281.77984129022497       276.52537237329          275.3827798608401        273.78468396023817       269.78672172006526       267.23600255573393       271.2545822230311        271.73475121533227       266.78049866081096       267.51050349938606       268.0812432182739        263.51298411950233       264.21577850832256       256.1757104249005        243.63791333826967       258.84876334728887       250.4641893143354        251.27183837665768       255.1377819755461        254.39639182383135
6                        274.2267667691245        275.449090232127         272.8884097696993        274.98132926735815       272.98385083091733       273.43045239222835       273.80189162151          273.28048922388865       274.08559890935607       279.3218272441591        279.1555647619496        274.82329347253375       279.5691560970139        279.4482005782811        279.47852541882116       278.90592035083813       277.66394780578474       281.72880633141483       282.484054923422         276.4927887511547        274.8188818717047        273.3529455408908        269.100917417374         266.4049549802059        272.4341572450711        273.56498851485986       266.3212811601877        268.66028810234303       269.93729944068195       264.5834823028423        266.1184288086184        255.13406352611287       242.97075703059423       258.40367599821093       250.4365561793828        251.31994883527184       265.94909101669305       256.1341905612087
7.5                      271.99261865371426       272.34429228397386       270.6086199791569        272.1854022943206        271.33084352372293       272.95578097373453       273.35391177118316       272.78325549759654       271.02710838835424       279.1286793902307        278.91787724433124       273.61689455976256       279.4402558275559        279.2867832134564        279.3208961385366        278.60289837201935       276.94245056010277       280.8702545416545        281.1500829808068        275.4467960273798        270.6849390541437        268.96794514764076       265.74565856020143       262.17948249650834       270.21483833593203       270.8188740818002        261.18701023908          266.4813540685454        267.13480835464554       262.6086040257777        263.47443832656006       253.2283055134408        241.45314360531955       257.74073617923756       248.06999150922826       248.31679096029947       257.45800269934927       254.33954341458536
9                        270.1524085535772        270.2720150560719        268.5822169568725        269.72746351853044       269.62236899197484       272.33173572956616       272.71289819565305       272.10530642154436       268.71927832760605       278.9196345063952        278.6643597016175        272.42862691058195       279.298061087842         279.1128515893158        279.1469773894472        278.28456314479763       276.1279546814015        279.8353663288799        279.9444359691726        274.3883899727382        268.0316571733624        266.2103373529401        263.1821476738742        259.2370234014526        268.3433033714419        268.6677941266001        257.93577259242346       264.5450659041977        264.85827312384527       260.79929936905535       261.2587684693585        251.25748834753176       240.1765196077818        256.9931635127434        246.40656236203367       246.4891040949972        253.91060350065496       252.89605961414375
10.5                     268.7217295789673        268.76917952403676       266.8464220786218        267.68830977079494       267.9679962710449        271.6104617902564        271.95558625558425       271.3196329534234        266.9826659440478        278.699213854661         278.3995687473537        271.2670307948273        279.1462664699648        278.92964686979735       278.9624175040491        277.95476996263096       275.36364857391936       278.9463947505974        278.9954490374985        273.4601593307991        266.15436374887173       264.30098614067674       261.32053091524534       257.2677714406331        266.93874739758644       267.13580114229285       255.82030712632155       263.0468997825162        263.1946909115405        259.3748725971442        259.61935195492106       249.43259311197835       239.18068084843637       256.2064253083921        245.30262927939313       245.33242642254675       252.14914686056696       251.83148099819135
12                       267.6050036069566        267.62730806497433       265.3802390474288        266.0223854018205        266.4165173479097        270.8333358876402        271.1353227298331        270.4786461972311        265.6405697656679        278.47075618764774       278.12706129454375       270.13559642687136       278.9872771814455        278.73952962976637       278.77042130771093       277.616853829166         274.6783290601717        278.2457711201349        278.27372202924323       272.6670226399817        264.7508548191567        262.89921377043305       259.9546374589637        255.92359695717127       265.9061163249458        266.04816211652565       254.4041942985355        261.9345217275798        262.0051604442808        258.31237245696          258.44821848589527       247.83105388761564       238.4281918291679        255.4090090529426        244.57090941739585       244.58080982606245       251.1639772324933        251.07134050566947
13.5                     266.72043672569174       266.73239907130915       264.1484184985963        264.66116539447324       264.98837123825905       270.03166902325785       270.28914305776107       269.6191944168282        264.58174304952956       278.2366620870541        277.84944986157035       269.0355209208983        278.8227426924524        278.5441917086116        278.57296818047433       277.2734585289998        274.06707731169496       277.6977146395917        277.71752860085775       271.982979705743         263.6653968192756        261.8307540540438        258.9299674204674        254.97356373016265       265.13568042625553       265.2537791530782        253.42273120255837       261.1106460431744        261.14528019065955       257.52999094585357       257.6107394218341        246.46321191680303       237.86604980267532       254.618202440057         244.0748714179239        244.0757302164669        250.55348883964118       250.53022187491266
15                       266.0123905855927        266.0197290992287        263.1165000025666        263.54546316533913       263.69048343265285       269.22840403340814       269.4427752210247        268.7667393894805        263.7388893137801        277.998700982146         277.5686661310166        267.967036701075         278.6538819959628        278.34489042581583       278.3714302358342        276.9266642287715        273.5195346917297        277.26175126916786       277.2781714329834        271.3841604852456        262.8130182496089        261.00207255063214       258.14894434048387       254.28363756045206       264.5499180235835        264.65722804304545       252.72441756708702       260.4961150156277        260.51396262969416       256.95391050322513       257.00648718212994       245.3124341734002        237.447754749579         253.84465842285704       243.7303967522479        243.7269255823732        250.14686216581134       250.14301704931944
