% Model:              PicC_fullinst_night.mph
% Version:            COMSOL 5.6.0.401
% Date:               Jul 28 2022, 13:03
% Table:              Table 3 - Point Evaluation 1
% Time (h)               Temperature (K), Point: 476Temperature (K), Point: 499Temperature (K), Point: 533Temperature (K), Point: 555Temperature (K), Point: 574Temperature (K), Point: 585Temperature (K), Point: 613Temperature (K), Point: 625Temperature (K), Point: 651Temperature (K), Point: 657Temperature (K), Point: 724Temperature (K), Point: 733Temperature (K), Point: 736Temperature (K), Point: 795Temperature (K), Point: 811Temperature (K), Point: 849Temperature (K), Point: 879Temperature (K), Point: 909Temperature (K), Point: 926Temperature (K), Point: 960Temperature (K), Point: 989Temperature (K), Point: 1015Temperature (K), Point: 1040Temperature (K), Point: 1073Temperature (K), Point: 1184Temperature (K), Point: 1273Temperature (K), Point: 1319Temperature (K), Point: 1451Temperature (K), Point: 1468Temperature (K), Point: 1905Temperature (K), Point: 1947Temperature (K), Point: 2341Temperature (K), Point: 2542Temperature (K), Point: 2682Temperature (K), Point: 2695Temperature (K), Point: 2721Temperature (K), Point: 2822
0                        277.12000000000006       274.73500000000024       270.6999999999992        267.5                    266.75                   266.4000000000004        262.04999999999967       261.84999999999945       267.5                    255.6500000000002        251                      267.5                    276                      242.83499999999958       273.75                   267.80000000000035       223.10986241408307       263.90000000000026       263.5999999999996        259.25                   257.2000000000001        253.29999999999967       248.25                   241.10000000000002       275.5                    275.5                    275.5                    276.1500000000002        279                      279                      276.1500000000001        276.15000000000015       279                      279                      279                      279                      264.29999999999995
0.25                     258.58328929665          256.63820053384273       258.31482948509654       259.784298488535         254.76251843064446       253.64475938451207       250.07813975592583       243.40223405508178       259.36366857548023       242.8818090631088        229.83633075301788       258.0454682926243        257.821284378906         228.97216626288028       255.09172826663016       256.2936150103971        222.69423895811286       253.2969006309196        252.39177836463563       248.46503251987815       241.54872797421004       241.40347227001723       228.946317965225         228.23920982011148       267.1203064207773        267.16418774200633       265.24308440481946       269.9685915915983        273.0302801965434        272.8865553612711        269.91018610079385       269.999198547165         273.0892428893001        276.5393151804897        276.8013833614483        276.5018946808505        260.1243047264855
0.5                      252.63171314386807       251.14871725886786       253.4773239500245        255.02031016808857       250.41974409078017       247.53471641482153       245.38238482410932       237.40390814291365       254.73523178705895       237.66208296090346       224.75190784362093       252.4830360539064        252.12036119328667       225.01473203675448       250.15912896920744       251.78572111488046       221.50153646043026       249.3870753900265        247.1000916318677        244.3513634879084        236.08853871759865       236.61957545125043       224.45774920732018       224.46735902802234       264.40188272810644       264.428228750733         262.12750490913743       268.7627959937507        271.2712676555535        271.1458228346157        268.6929681751283        268.7874784221855        271.3214525461207        275.52773816738693       275.9735330123659        275.4853372347977        257.63766960117636
0.75                     248.2351358379044        247.1515141496521        249.4333155574695        250.70495909724914       246.85383124902768       242.81291508309604       241.45997085521256       233.002348176427         250.57499356677857       233.646937769742         221.3486698270198        247.63316669946786       247.9404317045094        221.81172802211793       246.45587446535026       248.03778242405374       219.85789243659116       246.09275116171202       242.76829014190687       240.82963884396875       232.0325186374281        232.87714689326597       221.40229615347604       221.41277859497674       261.7377826900216        261.7614272316601        259.3097095111392        267.63232364225297       269.75042896900476       269.64032355176926       267.56179465145436       267.65301998910184       269.79250669187917       274.71251579874416       275.3156606542183        274.6668647214226        255.22888560466987
1                        244.4874869199651        243.7909923096213        245.79523009396408       246.83484219340397       243.64565305298711       238.8273723937881        237.95428658119718       229.3244472642034        246.82785113256168       230.20063805951997       218.54162607756456       243.36477513259294       244.36365951146712       218.95276620171936       243.28463589200155       244.64966712251763       218.0035368718938        243.07256682536493       238.9723643415095        237.6100383855753        228.5987293050105        229.62153732934033       218.8053776314979        218.6828205730264        259.1188176790242        259.1414013614112        256.64400138380984       266.5314330115724        268.35848306091793       268.26117239869427       266.462216235688         266.5489229766321        268.3937955307187        273.972836838523         274.7175875992863        273.9261784386538        252.88197010444637
