% Model:              PicC_fullinst_night.mph
% Version:            COMSOL 5.6.0.401
% Date:               Aug 6 2022, 13:17
% Table:              Table 3 - Point Evaluation 1
% Time (h)               Temperature (K), Point: 136Temperature (K), Point: 154Temperature (K), Point: 203Temperature (K), Point: 224Temperature (K), Point: 291Temperature (K), Point: 328Temperature (K), Point: 365Temperature (K), Point: 395Temperature (K), Point: 458Temperature (K), Point: 478Temperature (K), Point: 518Temperature (K), Point: 527Temperature (K), Point: 629Temperature (K), Point: 639Temperature (K), Point: 643Temperature (K), Point: 651Temperature (K), Point: 716Temperature (K), Point: 730Temperature (K), Point: 732Temperature (K), Point: 773Temperature (K), Point: 803Temperature (K), Point: 833Temperature (K), Point: 850Temperature (K), Point: 884Temperature (K), Point: 913Temperature (K), Point: 939Temperature (K), Point: 964Temperature (K), Point: 997Temperature (K), Point: 1152Temperature (K), Point: 1241Temperature (K), Point: 1287Temperature (K), Point: 1419Temperature (K), Point: 1436Temperature (K), Point: 1873Temperature (K), Point: 1915Temperature (K), Point: 2309Temperature (K), Point: 2510Temperature (K), Point: 2653Temperature (K), Point: 2663Temperature (K), Point: 2686Temperature (K), Point: 2790
0                        275.3014492932787        276.2000000000001        274.253655040533         274.29999999999967       269                      265                      265                      264                      259.70000000000033       258                      265                      251.90000000000038       243.29999999999987       265                      276.20000000000016       275.2157266876381        236                      273.32703627922814       273.58500765828654       265.40000000000003       236.56265426642062       261.79999999999984       260.7999999999998        256.2000000000001        252.39999999999998       249.09999999999997       239.7999999999999        233.7000000000002        274                      274                      274                      276.5                    278                      278                      276.5                    276.5                    278                      279                      279                      279                      264.29999999999995
0.25                     270.8152363309914        270.72657786974327       272.0897685983674        271.7746032934865        263.01210326557344       265.89413640141          260.7409836204895        258.86963643061614       255.8064649674134        250.82325668460916       265.6006911295552        248.69339349496755       239.03076232748737       260.4350474496483        270.5755505764056        270.68573196550676       236.69917505057336       271.5959575796147        271.85219699406827       260.9299164541617        236.50253984421934       258.9478377883372        256.9015052763212        253.74316908018804       248.00179549584442       246.76702104543227       237.90480040641873       235.43801878955492       270.4624241490917        270.4914510671205        269.77275162498347       273.18626902276          274.8178776670829        274.73397936859885       273.1514791427237        273.2047462036592        274.8466203974002        277.73718987582345       277.72189172741315       277.6809026824498        262.8602484060938
0.5                      269.4323286568462        269.3523567253652        270.79118127757704       270.49920719000545       260.76648071033566       265.2713877511472        259.1367542013058        256.10607872684096       254.18233992510474       248.3642198813065        264.97480898466364       247.23957667472615       237.91865852878396       257.81489675618377       269.20569263376996       269.3052936061352        236.70271144270595       270.3088365849319        270.5436669041953        259.1549519667554        236.30604515706398       257.7974122970492        254.8363372107093        252.63558987227393       246.36408845784626       245.7329566085079        237.37415856457594       235.7338964039287        269.31503167402997       269.3370098789352        268.4649076226303        272.53898435020324       273.876161160533         273.7980239993811        272.4959581079343        272.5536163464452        273.89998488003545       277.21996506550215       277.2237257531348        277.1621861699493        261.9349756693658
0.75                     268.16238531324143       268.0873053532674        269.4818096067685        269.2071128052535        258.9528606526566        264.32906330449725       257.7850345664153        253.9305307099415        252.72622017247602       246.58671977232754       264.0538470091361        246.040914103476         237.16666893709524       255.53322616929043       267.9484290728598        268.04179369935963       236.52308991473635       269.0006572801109        269.21894698177397       257.7033816802015        236.02144619341092       256.74159175078654       253.06449605869338       251.5813379948097        245.10768615061835       244.8483764974257        236.95363772409107       235.7766244598479        268.1892553435346        268.21017731530446       267.27041814662596       271.9285093600802        273.05793083812495       272.98467382767205       271.8833435645274        271.94050670236726       273.07727324580844       276.8161184205353        276.83256452881017       276.757616542529         261.0068516566097
1                        266.891341981807         266.8197387659483        268.169493688392         267.90819095118934       257.3545046421976        263.25876587127664       256.53420895358204       252.09565413708225       251.3610066022216        245.1297207807361        263.0045890989796        244.95643087816086       236.54979194785145       253.52971187175186       266.68784977076103       266.77670903266795       236.23367456403287       267.69203427922724       267.89750365182744       256.39244733109507       235.68733350625357       255.70808165828626       251.4787753302347        250.54004699095896       244.01872154754741       244.0167304333791        236.5488228159454        235.67458035850274       267.0760953383887        267.09674355721984       266.13057870028183       271.3305470040581        272.30523593427927       272.2360777879927        271.2846078776265        271.3404533134745        272.3208632636172        276.45513406908475       276.48182831255315       276.3971351212079        260.08177291980775
