% Model:              PicC_fullinst_tstep.mph
% Version:            COMSOL 5.6.0.401
% Date:               May 2 2022, 12:08
% Table:              Table 1: Tsense - Tsense Eval
% Time (h)               Temperature (K), Point: 950Temperature (K), Point: 955Temperature (K), Point: 1264Temperature (K), Point: 1283Temperature (K), Point: 1353Temperature (K), Point: 1469Temperature (K), Point: 1480Temperature (K), Point: 1484Temperature (K), Point: 1716Temperature (K), Point: 1754Temperature (K), Point: 1825Temperature (K), Point: 1826Temperature (K), Point: 1933Temperature (K), Point: 1988Temperature (K), Point: 1989Temperature (K), Point: 2928Temperature (K), Point: 3088Temperature (K), Point: 3338Temperature (K), Point: 3339Temperature (K), Point: 3464Temperature (K), Point: 3467Temperature (K), Point: 3567Temperature (K), Point: 3653Temperature (K), Point: 3719Temperature (K), Point: 3724Temperature (K), Point: 3732Temperature (K), Point: 3749Temperature (K), Point: 3872Temperature (K), Point: 3880Temperature (K), Point: 3996Temperature (K), Point: 4004Temperature (K), Point: 4028Temperature (K), Point: 4163Temperature (K), Point: 4202Temperature (K), Point: 4215Temperature (K), Point: 4222Temperature (K), Point: 4341Temperature (K), Point: 4349
0                        273.9992472479298        273.9990056222818        273.9993916154856        273.9993463648043        273.9999143039543        273.99990365617276       273.999939928281         273.99989361847196       260.0014435240575        280.0000100649593        280.0000082634171        280.0000056390656        280.0000171905717        280.0000155589125        280.0000194705407        280.0000098275473        280.00258039479354       274.0010385824055        274.0010321484158        280.00206260961687       260.00180642562975       260.00132059747756       260.001316519433         273.9988343603528        260.0026263515018        260.00263481588          260.00110465660043       260.0018368737404        260.0018381269481        260.0013137148402        260.0013176588843        274.00345424379793       259.99828397335204       259.99997880794047       249.9993492213543        249.99932060256862       250.00105709016358       250.0010698883665
0.25                     272.15395490027566       272.0431970286284        273.2574998276207        273.25923128444236       273.68021349185074       273.8886877090327        273.8789541614563        273.8532073267997        261.1725695653865        279.9938212677488        279.9902935019239        279.78420295563          279.99645404261685       279.9935147518035        279.99286894427667       279.9812111759523        280.2701736001825        277.76011350999005       277.72251882779585       280.1504154004195        261.0023671981987        260.4741521657895        260.03298431732645       269.5282192005358        262.1579959390535        262.19110110965386       259.0515111187588        260.269620093843         260.26218527589566       258.77513121090436       258.7557950512516        274.002949634208         252.5521151290704        260.11625493240444       243.36821518378457       243.25595000579267       244.98700302973694       245.0024454400648
0.5                      270.5985411443768        270.46114760725993       272.54951342097337       272.55247628494413       273.3150176375305        273.7646451568945        273.7449018393207        273.6885339773529        261.9445299318029        279.9698795637325        279.95940028231274       279.5502215071349        279.98123522188837       279.9734707062915        279.9721051565498        279.9425956453329        279.89940243848037       279.5696309775977        279.5121191929045        279.5862696660648        261.42531535192444       260.45859861617527       259.4022464101668        265.5530941896009        262.06533992662787       262.1044000457272        257.30363333840484       259.15661017521455       259.1422711034581        256.7126463734744        256.66989374620374       272.5035767161251        246.1579630421824        260.0533005022562        237.74753970028863       237.60677266944984       240.58388549966216       240.6092330160402
0.75                     269.33446308818765       269.22982642642296       271.87711664388934       271.90327552288466       272.9342301865678        273.6277826367008        273.6012314920729        273.50926144868447       262.44114103649787       279.9352797375865        279.9162448609551        279.30777257145786       279.95921901721607       279.94578976956257       279.94393240564534       279.8921885694409        279.34831788081635       280.29322371600654       280.24482888517053       278.85749789263144       261.69077606664416       260.3609803403484        258.66495833428655       262.31472300150295       261.3853795467582        261.42979941890394       255.58494983325065       257.83663999584985       257.8287532388402        254.70373215554622       254.6557482732242        270.7886187089938        240.73498792767623       259.91056286903347       233.06933261379496       232.95221603727273       236.9202199503567        236.95071294594555
1                        268.2681647485187        268.2312596176722        271.2298028718237        271.2969289386648        272.54327486866646       273.4814115851367        273.4507085095234        273.31939950879797       262.739551796964         279.8936745735017        279.865051901997         279.06016746430083       279.93274232502444       279.91310213557523       279.91096261793484       279.8339717692492        278.7073555013444        280.37128374551884       280.3516278339083        278.05619002278087       261.8484012355074        260.21066227678705       257.879054158347         259.6009381545857        260.41922134599065       260.47127334312546       253.9361714425474        256.44925250024477       256.45826165473767       252.78789392484342       252.74974484761069       268.97726000610623       235.9882721682346        259.7177322216283        229.04700064649685       228.98414192313936       233.78105471217125       233.81356568831134
1.25                     267.2114482788132        267.2433150324613        270.5837375016178        270.69314635843557       272.1517902664142        273.3343907212253        273.29978551832966       273.1288658010348        263.02753098659156       279.8517706672237        279.8135121528162        278.8124335154491        279.9060754928481        279.88019441806296       279.8777948478969        279.77539611008604       278.0672571166509        280.43276274455434       280.4425395953699        277.2571508739562        262.0002135588821        260.0581158075541        257.09432335282474       256.91577983657135       259.4540373035541        259.51435827072595       252.29792830496046       255.0686674134558        255.09517261837854       250.88441691416634       250.85719278772865       267.167016936925         231.27769182974373       259.52292260099324       225.05925120792492       225.05154317514456       230.67055931311725       230.70499907423897
1.5                      266.4037274171048        266.5314008065284        269.9701132500297        270.1559922896538        271.74655161831765       273.1704837566746        273.13846785511964       272.9208754536457        263.0444341406194        279.802103610922         279.75296067182563       278.5613514710537        279.87446766050283       279.8415675839994        279.8394822856459        279.7074950991784        277.449610602625         280.0633651213293        280.1206050261787        276.5170669784771        262.00097259076654       259.84766172454846       256.3400838899703        254.97451388990137       258.51416785491256       258.5993069229819        250.93345550292491       253.86485052801672       253.9244470646311        249.30216003146273       249.31418951127762       265.3857648574038        227.50613082090274       259.27668714756504       221.97016745768894       222.04081149425377       228.30508175013725       228.33913244960107
1.75                     265.59600655539646       265.8194865805954        269.35648899844165       269.6188382208721        271.3413129702211        273.006576792124         272.9771501919097        272.7128851062566        263.06133729464716       279.7524365546203        279.6924091908351        278.31026942665824       279.84285982815754       279.80294074993594       279.8011697233949        279.6395940882708        276.8319640885991        279.6939674981042        279.79867045698745       275.7769830829979        262.001731622651         259.63720764154283       255.58584442711583       253.03324794323146       257.57429840627094       257.6842555752378        249.56898270088942       252.6610336425776        252.75372151088362       247.71990314875913       247.77118623482656       263.6045127778825        223.7345698120617        259.03045169413684       218.881083707453         219.03007981336296       225.93960418715722       225.97326582496322
2                        264.8981260146631        265.2240383555711        268.74091172753737       269.10938721765893       270.9171722462013        272.8235530847185        272.8049678305485        272.4881627297846        262.9033093186209        279.6992819557934        279.6276807792081        278.060995746981         279.80898211091994       279.7614794114092        279.7606896287695        279.5666762761555        276.31245447463186       279.31617282943955       279.4711315676754        275.1640627353736        261.88428021269857       259.3700992333186        254.86555456339102       251.50154625434016       256.8268022578129        256.974718243891         248.42857264937925       251.68844668453787       251.82446409341466       246.43316317138368       246.5437578181682        261.9562757892228        220.60131188937433       258.7611223485615        216.35998492969014       216.59292356767008       224.06524980363108       224.10038087202403
2.25                     264.2881075609899        264.72175214810585       268.1237722220031        268.62209610197357       270.47791161151815       272.6252377529796        272.6240947165896        272.2500562792048        262.6053526347951        279.64333764584546       279.55961120979896       277.81316859164843       279.77328869592884       279.7177507317484        279.71847570892874       279.48974548756144       275.8714452945693        278.9316613018754        279.1391097411504        274.6528614524179        261.6722713939559        259.05767261033975       254.1724212356988        250.29745805159135       256.23318693835023       256.429573097859         247.46739205312585       250.90082225967086       251.08835882830297       245.3828093574241        245.5687600714035        260.4144385578638        217.97863733742457       258.47332002744884       214.29322154222154       214.61457456485044       222.58374849234062       222.62183561304525
2.5                      263.6780891073166        264.21946594064065       267.5066327164688        268.1348049862882        270.038650976835         272.4269224212407        272.44322160263073       272.01194982862495       262.3073959509693        279.58739333589745       279.4915416403898        277.56534143631586       279.7375952809378        279.67402205208765       279.67626178908796       279.4128146989674        275.43043611450673       278.54714977431126       278.80708791462536       274.14166016946217       261.4602625752133        258.7452459873608        253.47928790800657       249.09336984884254       255.6395716188876        255.884427951827         246.5062114568724        250.11319783480386       250.35225356319128       244.33245554346445       244.59376232463885       258.8726013265047        215.35596278547482       258.1855177063361        212.2264581547529        212.6362255620308        221.1022471810501        221.14329035406644
2.75                     263.0680706536434        263.7171797331754        266.8894932109346        267.64751387060284       269.5993903421518        272.2286070895018        272.2623484886719        271.77384337804506       262.00943926714353       279.5314490259494        279.42347207098067       277.31751428098323       279.70190186594675       279.63029337242693       279.6340478692472        279.3358839103733        274.98942693444417       278.1626382467472        278.47506608810033       273.6304588865065        261.24825375647066       258.4328193643819        252.78615458031436       247.88928164609368       255.04595629942492       255.33928280579502       245.545030860619         249.32557340993685       249.61614829807957       243.28210172950483       243.61876457787415       257.3307640951457        212.733288233525         257.8977153852234        210.1596947672843        210.6578765592112        219.6207458697596        219.66474509508768
3                        262.45805219997015       263.2148935257102        266.2723537054003        267.16022275491747       269.1601297074687        272.0302917577629        272.081475374713         271.5357369274653        261.7114825833177        279.47550471600147       279.3554025015715        277.06968712565066       279.6662084509557        279.58656469276616       279.5918339494064        279.2589531217793        274.5484177543816        277.77812671918304       278.1430442615753        273.1192576035508        261.03624493772804       258.120392741403         252.09302125262207       246.68519344334487       254.45234097996226       254.79413765976298       244.58385026436554       248.5379489850699        248.88004303296782       242.23174791554518       242.6437668311095        255.78892686378666       210.11061368157524       257.60991306411074       208.09293137981567       208.67952755639152       218.13924455846913       218.1861998361089
3.25                     261.83746265341773       262.6960532734545        265.58174607692564       266.6223700350843        268.6713678935779        271.7999544942262        271.8782382115881        271.27013606469086       261.21665589990965       279.41793201666286       279.2853669662106        276.8270389904511        279.6293133445281        279.54123608031426       279.5487346976879        279.1789397597902        274.20400042152994       277.48684195513897       277.8994226803388        272.72856939655895       260.6516344665992        257.6787957044608        251.3489531714897        245.6368722127394        254.02138537736883       254.41870778263333       243.71165356682042       247.93244795560574       248.32937771738838       241.40827451676878       241.90645663036162       254.42048226266473       207.96834451004142       257.31116258012247       206.40168519944058       207.07232054607033       217.0207829857623        217.07521673359076
3.5                      261.20960691416974       262.16583436047625       264.8406390777268        266.04976306959895       268.14858073236576       271.547606495415         271.65962879768927       270.98563652234384       260.5865077914331        279.35924002046136       279.21398009588336       276.58795072921083       279.59159223821206       279.4948077310524        279.5050269003728        279.0968075466526        273.92597688378305       277.2596379475372        277.71656427883613       272.4207175852261        260.1483837678095        257.14841152609904       250.5698743551734        244.69561965025872       253.7022362701006        254.1599341359728        242.90062123157972       247.4521320607811        247.9061772176191        240.74075063375312       241.33252438215212       253.17122157920335       206.15628888463604       257.00488671895465       204.96855617104077       205.72022332106          216.1518619976333        216.2168827646074
3.75                     260.5817511749217        261.6356154474981        264.09953207852783       265.4771561041136        267.6257935711536        271.2952584966037        271.44101938379043       270.70113697999676       259.9563596829567        279.3005480242599        279.14259322555625       276.34886246797055       279.55387113189596       279.44837938179063       279.4613191030577        279.0146753335151        273.6479533460361        277.03243393993546       277.53370587733343       272.1128657738933        259.6451330690198        256.6180273477373        249.7907955388571        243.75436708777806       253.3830871628323        253.90116048931225       242.08958889633908       246.97181616595645       247.48297671784982       240.07322675073752       240.75859213394264       251.9219608957419        204.34423325923066       256.6986108577869        203.53542714264097       204.36812609604968       215.28294100950424       215.358548795624
4                        259.9538954356737        261.10539653451985       263.358425079329         264.9045491386282        267.1030064099415        271.0429104977925        271.2224099698916        270.4166374376497        259.3262115744802        279.2418560280584        279.07120635522904       276.10977420673026       279.5161500255799        279.4019510325288        279.4176113057425        278.9325431203775        273.3699298082892        276.8052299323337        277.35084747583073       271.80501396256045       259.14188237023006       256.0876431693756        249.01171672254083       242.8131145252974        253.06393805556402       253.64238684265172       241.27855656109838       246.49150027113183       247.05977621808054       239.40570286772186       240.1846598857331        250.67270021228046       202.53217763382534       256.39233499661907       202.1022981142412        203.01602887103934       214.41402002137522       214.5002148266406
4.25                     259.3260396964257        260.5751776215416        262.6173180801301        264.33194217314286       266.58021924872935       270.7905624989813        271.00380055599277       270.1321378953026        258.69606346600375       279.18316403185696       278.99981948490193       275.8706859454899        279.4784289192639        279.355522683267         279.3739035084274        278.85041090723996       273.0919062705423        276.57802592473195       277.1679890743281        271.49716215122766       258.63863167144035       255.5572589910139        248.23263790622454       241.87186196281672       252.74478894829576       253.38361319599116       240.46752422585772       246.01118437630714       246.63657571831126       238.73817898470625       239.6107276375236        249.42343952881905       200.72012200841996       256.08605913545125       200.66916908584142       201.663931646029         213.54509903324617       213.6418808576572
4.5                      258.69818395717766       260.04495870856346       261.87621108093117       263.75933520765756       266.0574320875172        270.53821450017006       270.78519114209394       269.8476383529555        258.0659153575273        279.12447203565546       278.9284326145747        275.6315976842496        279.4407078129478        279.3090943340052        279.3301957111123        278.76827869410243       272.81388273279543       276.35082191713025       276.9851306728254        271.1893103398948        258.1353809726506        255.02687481265218       247.45355908990823       240.93060940033612       252.42563984102748       253.12483954933066       239.65649189061702       245.53086848148249       246.21337521854198       238.07065510169062       239.0367953893141        248.1741788453576        198.90806638301459       255.77978327428343       199.2360400574416        200.3118344210187        212.67617804511715       212.7835468886738
4.75                     258.04854829313285       259.48090593293347       261.10073893621603       263.144945025997         265.5101198395419        270.2735827413152        270.5552853958194        269.55166337698375       257.3758325427812        279.0655930953451        278.8568748549889        275.3943733779634        279.4027962170951        279.26245242217453       279.2864554343474        278.6856997853456        272.5525204532622        276.14992869891535       276.8316318711072        270.90443333843365       257.56374734507756       254.43820917749716       246.64847904094978       239.9923712902762        252.13361332386572       252.9272586501472        238.83429182133617       245.0835532335881        245.86417913097014       237.45188909941876       238.55555370332752       246.97028399408583       197.20751666857058       255.47363420251867       197.97005404812307       199.08078505380456       212.31177771591575       212.05498832447643
5                        257.3076324432068        258.77505462949665       260.18124164449847       262.3554403857343        264.86002236621          269.95746945024376       270.27803645030764       269.2075945841552        256.434561940196         279.0059306678018        278.7846008944315        275.1649609514824        279.36408627503715       279.21491546450875       279.24257903543105       278.601248764562         272.36098590550256       276.05930462847385       276.801179854478         270.7158443147884        256.70551922699684       253.60528456260997       245.73442720394073       239.06676682242872       251.95525823071475       252.98613801960104       237.9652875115185        244.77454448647796       245.82513730538162       237.03746854181603       238.46278038112376       245.95651843084218       195.97429089460658       255.16801650817536       197.40456843046366       198.35705015453442       214.0618355383119        211.87032158645275
5.25                     256.5667165932808        258.0692033260598        259.26174435278097       261.5659357454716        264.20992489287806       269.6413561591723        270.00078750479594       268.86352579132654       255.4932913376107        278.9462682402585        278.71232693387407       274.93554852500137       279.3253763329792        279.16737850684297       279.1987026365148        278.51679774377834       272.16945135774284       275.9686805580324        276.77072783784877       270.5272552911432        255.84729110891612       252.77235994772272       244.82037536693164       238.1411623545813        251.77690313756372       253.04501738905492       237.09628320170086       244.4655357393678        245.78609547979315       236.6230479842133        238.37000705891998       244.9427528675985        194.74106512064256       254.86239881383204       196.83908281280424       197.6333152552643        215.81189336070807       211.68565484842915
5.5                      255.82580074335473       257.36335202262296       258.34224706106346       260.776431105209         263.5598274195461        269.3252428681009        269.7235385592842        268.51945699849796       254.5520207350254        278.88660581271523       278.6400529733167        274.7061360985204        279.2866663909212        279.11984154917724       279.1548262375985        278.4323467229947        271.9779168099832        275.87805648759087       276.74027582121954       270.33866626749796       254.98906299083544       251.9394353328355        243.90632352992262       237.21555788673382       251.59854804441275       253.10389675850877       236.2272788918832        244.15652699225757       245.74705365420465       236.20862742661052       238.27723373671625       243.92898730435485       193.50783934667854       254.55678111948873       196.27359719514482       196.9095803559942        217.56195118310424       211.5009881104055
5.75                     255.0848848934287        256.6575007191861        257.42274976934596       259.98692646494635       262.9097299462142        269.0091295770294        269.4462896137724        268.1753882056693        253.61075013244013       278.82694338517194       278.5677790127593        274.4767236720394        279.24795644886325       279.0723045915114        279.11094983868225       278.3478957022111        271.7863822622235        275.78743241714943       276.7098238045903        270.1500772438527        254.1308348727547        251.10651071794828       242.99227169291356       236.28995341888634       251.42019295126175       253.1627761279626        235.35827458206552       243.8475182451474        245.70801182861615       235.7942068690078        238.1844604145125        242.91522174111114       192.27461357271451       254.2511634251454        195.70811157748543       196.18584545672405       219.31200900550039       211.31632137238188
6                        254.34396904350268       255.95164941574924       256.50325247762845       259.1974218246837        262.25963247288223       268.6930162859579        269.16904066826066       267.83131941284074       252.66947952985484       278.76728095762866       278.49550505220185       274.24731124555836       279.20924650680524       279.02476763384567       279.0670734397659        278.2634446814274        271.5948477144638        275.6968083467079        276.67937178796103       269.9614882202075        253.272606754674         250.27358610306104       242.0782198559045        235.36434895103892       251.24183785811073       253.22165549741644       234.4892702722479        243.53850949803726       245.66897000302768       235.37978631140504       238.09168709230877       241.9014561778675        191.04138779875052       253.94554573080208       195.142625959826         195.4621105574539        221.06206682789656       211.13165463435828
6.25                     253.60305319357664       255.2457981123124        255.58375518591092       258.407917184421         261.6095349995503        268.3769029948865        268.8917917227489        267.48725062001216       251.72820892726958       278.7076185300853        278.42323109164437       274.01789881907735       279.1705365647473        278.9772306761799        279.02319704084965       278.17899366064375       271.40331316670415       275.60618427626645       276.6489197713318        269.77289919656226       252.4143786365933        249.44066148817387       241.16416801889542       234.43874448319144       251.06348276495976       253.28053486687028       233.6202659624302        243.2295007509271        245.62992817743915       234.9653657538023        237.99891377010502       240.88769061462384       189.8081620247865        253.63992803645877       194.57714034216662       194.73837565818377       222.81212465029273       210.94698789633463
6.5                      252.72491119164687       254.2374563243185        254.60344984803532       257.3862321914108        260.8424676468028        268.0111507467041        268.5409264314794        267.0799374335847        250.56343226518408       278.6411746105163        278.3432992178606        273.7831974828861        279.12615691339795       278.9236049033976        278.97128816001054       278.0861735998146        271.10914212429174       274.6038053481357        275.58240556415524       269.40160212664983       251.0713368739327        248.04373195551685       239.86699241349763       232.92447362175446       250.07449285996498       252.24463614706525       231.95884681767336       242.14085655584722       244.49234409140948       233.84489979712885       236.83794874832714       239.83320202556172       188.5472496065536        253.29748489285984       193.15461140032647       193.3045241198166        221.37175492630377       209.92160896110363
6.75                     251.8108699460734        253.14998108073738       253.60723673432653       256.3038073253454        260.04480022155593       267.63241262819366       268.1708026308521        266.6560791071693        249.3401849809273        278.5729566090326        278.261363984741         273.5471125339102        279.08029402964513       278.86838625743343       278.91727793025655       277.99116414430176       270.78812071498885       273.36290548721246       274.24485082669094       268.98250745713403       249.6014647447975        246.49925511016778       238.4695891670399        231.25620384699292       248.87343567631035       250.9223364403627        230.0901268573581        240.84825471500378       243.06737428709968       232.53972782462236       235.39753791012734       238.76806003112162       187.27909418417195       252.94540797497075       191.50787441462106       191.6849015030499        219.09674884370042       208.6762943098226
7                        250.89682870049998       252.06250583715624       252.61102362061777       255.22138245928008       259.24713279630913       267.2536745096832        267.80067883022474       266.2322207807539        248.11693769667053       278.5047386075488        278.1794287516215        273.31102758493427       279.0344311458924        278.8131676114693        278.8632677005026        277.896154688789         270.467099305686         272.1220056262892        272.9072960892267        268.5634127876182        248.13159261566236       244.95477826481869       237.07218592058223       229.58793407223138       247.6723784926557        249.60003673366015       228.2214068970428        239.55565287416027       241.64240448278983       231.23455585211582       233.9571270719275        237.70291803668152       186.01093876179033       252.59333105708166       189.86113742891564       190.06527888628318       216.82174276109706       207.43097965854156