% Model:              PicC_fullinst_rot2.mph
% Version:            COMSOL 5.6.0.401
% Date:               Jul 14 2022, 18:22
% Table:              Table 3 - Point Evaluation 1
% Time (h)               Temperature (K), Point: 476Temperature (K), Point: 499Temperature (K), Point: 539Temperature (K), Point: 568Temperature (K), Point: 587Temperature (K), Point: 598Temperature (K), Point: 626Temperature (K), Point: 638Temperature (K), Point: 664Temperature (K), Point: 670Temperature (K), Point: 776Temperature (K), Point: 785Temperature (K), Point: 788Temperature (K), Point: 847Temperature (K), Point: 863Temperature (K), Point: 901Temperature (K), Point: 931Temperature (K), Point: 961Temperature (K), Point: 978Temperature (K), Point: 1012Temperature (K), Point: 1041Temperature (K), Point: 1067Temperature (K), Point: 1092Temperature (K), Point: 1125Temperature (K), Point: 1238Temperature (K), Point: 1342Temperature (K), Point: 1399Temperature (K), Point: 1531Temperature (K), Point: 1548Temperature (K), Point: 1985Temperature (K), Point: 2027Temperature (K), Point: 2421Temperature (K), Point: 2622Temperature (K), Point: 2762Temperature (K), Point: 2775Temperature (K), Point: 2795Temperature (K), Point: 2902
0                        277.9069517133689        275.0220250467208        272.3409403226398        270.37926411975957       268.39158080881197       268.7138299620425        264.3051584997208        265.5177713165371        270.0397742661641        259.3564899304137        258.47867179261135       269.8365604610393        275.6594965357257        249.4342774893844        273.79459988393376       270.07907394474705       245.92536665151255       265.9071815487002        266.3459654043808        262.21420836007087       261.8007942065779        257.42737091550225       256.4693290218846        248.2770839571025        277.64161269385494       277.21256978546484       276.6122760828738        275.2421949997408        277.09243282489643       277.71362774019576       275.408747475534         275.3037749694052        277.26663462483174       282.9986755190999        282.9991039524425        282.9991506639018        273.59853778543066
0.25                     270.0629412961222        268.37213346598236       270.1994612864678        270.97416505660885       266.6467245077556        266.5513511823623        262.9199869287936        260.72651200454527       269.6927006646972        257.34649968954176       250.25915921375844       268.2047473363379        267.57485243890636       245.8110551580851        265.4107135276207        266.77882782466907       245.74837627018258       264.2906474578503        264.30890498082          260.617536672541         257.2380914147766        255.0968695347532        248.44722634502386       244.15630709439893       278.1194315120007        277.96190519686564       275.85258741632265       271.00642087653307       273.12999519381134       273.4710469961735        271.15641037723924       271.02653420543146       273.1801666563011        281.26186840503885       281.3331508788337        281.2973972194196        274.94849503964264
0.5                      267.9818012858439        266.1266948868468        269.15834676105544       270.1176144976923        265.7296680465562        265.2601683833041        262.1005435456464        259.03783959649564       268.7828652054083        256.31133142800354       248.27171781358683       267.1708290159117        265.5476346381787        244.56893097686574       263.21913118044745       265.6011167765365        245.165291135692         263.4363768232911        263.1903747394077        259.80735954005957       255.67244107759123       254.0432770012393        246.59706170403186       242.84388783808058       277.96697056834864       277.82542482918154       275.5280569879119        270.18884144346254       272.0138054718604        272.2603333046958        270.2838865426778        270.2021522742527        272.0520150501588        280.69658223415064       280.76054471976335       280.73126097693375       275.2172146277142
0.75                     266.5208079883264        264.3604469413031        268.1676073532566        269.21099692058425       264.81544665719395       264.0838279119201        261.2364417722961        257.6203486633687        267.91205144616947       255.31474778060092       246.7810499547369        266.184014681963         264.2353596414227        243.44684972165538       261.56551079565463       264.60092163543885       244.4641292374858        262.59400145408034       262.17434705496106       258.99749430610717       254.39026750029265       253.07894660489237       245.24825453438697       241.72238897210684       277.756347804183         277.624174716666         275.2015587778133        269.4170958673434        271.0163535039364        271.1860468103775        269.4713444893144        269.4256878479359        271.04458100472226       280.2514093807117        280.28773950934664       280.26566471676557       275.20038872743316
1                        265.7969042239249        263.07436341153          267.2222056551521        268.60231216542104       263.8850253449376        263.00654016418355       260.2944267944856        256.4210416326571        267.44477170965604       254.31542563037837       245.6395331367053        265.2667018102129        263.915401863905         242.4238509031654        260.4680976502086        263.7782331165492        243.66890094861174       261.767724325711         261.2731483863297        258.17156774157905       253.35766526709403       252.17934370473455       244.25785498552554       240.77831402824646       277.4810314441644        277.3607469446777        274.8434015630237        268.6804572083931        270.1510821346072        270.269470979871         268.70915193342626       268.68646929811547       270.1731365281249        279.91172321440104       279.89009857831275       279.87498340024524       274.89160634724374
1.25                     265.0730004595234        261.78827988175686       266.27680395704755       267.9936274102579        262.95460403268123       261.92925241644696       259.3524118166751        255.22173460194557       266.9774919731426        253.31610348015582       244.49801631867365       264.34938893846277       263.5954440863873        241.40085208467545       259.37068450476266       262.95554459765947       242.87367265973768       260.9414471973417        260.3719497176983        257.34564117705094       252.3250630338954        251.27974080457676       243.2674554366641        239.8342390843861        277.2057150841458        277.09731917268937       274.48524434823406       267.9438185494427        269.2858107652781        269.3528951493646        267.9469593775381        267.947250748295         269.30169205152754       279.5720370480904        279.4924576472788        279.48430208372497       274.58282396705425
1.5                      264.5216606442184        260.63563831662157       265.31975054976533       267.4816064691422        262.0090767265937        260.832815332972         258.36741787349257       254.02586809753728       266.58974294872706       252.2887806377966        243.3876147563003        263.4230300789348        263.3277635253297        240.38855121062426       258.4212674379921        262.1586572686755        242.0577396610783        260.1235288333785        259.47398487349847       256.50705057868254       251.32082024421504       250.3814042458523        242.3226927415347        238.92883640524758       276.9224174416219        276.8222648756033        274.09852974689164       267.22490051337047       268.4670651495646        268.4930852536841        267.2077744005571        267.22642187974674       268.47831402718356       279.2475286023025        279.10570693042365       279.10621654727316       274.2082265828824
1.75                     264.2607745240351        259.7076016699314        264.3430853869407        267.1322867302282        261.0381235320181        259.70414674718467       257.3100832162142        252.835792568493         266.3358572794645        251.2143279949221        242.32958532048013       262.48144532437          263.1480741743192        239.39425674815962       257.72095227309586       261.40519761381404       241.20695720808578       259.31967965374446       258.5814630911919        255.6471443147693        250.36431109301853       249.48519914940914       241.45474442663698       238.0885255500155        276.62568597930186       276.5276412119505        273.66374833616817       266.5358092193364        267.72663007974876       267.7288218241896        266.5073149878924        266.5365458892799        267.73583979961455       278.948566772899         278.73728624695883       278.74933179396874       273.7228516510174
2                        263.9998884038518        258.7795650232413        263.366420224116         266.7829669913142        260.0671703374426        258.5754781613972        256.2527485589359        251.6457170394487        266.081971610202         250.1398753520475        241.27155588466          261.5398605698051        262.9683848233087        238.39996228569495       257.02063710819954       260.6517379589525        240.3561747550933        258.5158304741104        257.6889413088853        254.78723805085605       249.40780194182193       248.58899405296597       240.5867961117393        237.24821469478348       276.32895451698175       276.23301754829754       273.2289669254447        265.8467179253023        266.986195009933         266.964558394695         265.8068555752277        265.84666989881305       266.9933655720455        278.64960494349555       278.36886556349396       278.39244704066436       273.2374767191523
2.25                     263.7390022836685        257.8515283765511        262.3897550612913        266.4336472524002        259.096217142867         257.44680957560985       255.19541390165747       250.4556415104044        265.8280859409395        249.06542270917294       240.21352644883981       260.59827581524024       262.78869547229823       237.4056678232303        256.3203219433032        259.89827830409104       239.50539230210077       257.7119812944764        256.79641952657875       253.9273317869428        248.45129279062542       247.6927889565228        239.71884779684157       236.4079038395514        276.0322230546617        275.9383938846447        272.7941855147212        265.1576266312682        266.2457599401172        266.20029496520044       265.10639616256293       265.15679390834623       266.2508913444765        278.3506431140921        278.00044488002914       278.03556228736          272.75210178728724
2.5                      263.4781161634852        256.9234917298609        261.41308989846664       266.0843275134862        258.12526394829143       256.3181409898225        254.13807924437913       249.2655659813601        265.57420027167694       247.99097006629842       239.15549701301967       259.6566910606754        262.6090061212878        236.41137336076562       255.6200067784069        259.14481864922953       238.65460984910828       256.9081321148423        255.9038977442722        253.06742552302953       247.49478363942882       246.7965838600796        238.85089948194388       235.5675929843194        275.73549159234165       275.6437702209918        272.35940410399763       264.46853533723413       265.50532487030137       265.4360315357059        264.4059367498982        264.4669179178794        265.5084171169074        278.05168128468864       277.63202419656426       277.6786775340556        272.26672685542223
2.75                     263.1219633609566        256.0493314105101        260.4576357276811        265.6897521483672        257.2058299723911        255.22206557540989       253.13265844207243       248.11803586411307       265.28301673449556       246.9678826344615        238.13352617225738       258.72686025714376       262.365661940973         235.46158666862047       254.97831294432288       258.4308385969291        237.82492565515656       256.1631753264184        255.04623158894978       252.26870663364957       246.59331395289183       245.95974163608076       238.02408585950428       234.7784893580584        275.40812304050604       275.3194722359597        271.91791202893944       263.786124160891         264.77651583088976       264.6854755037703        263.71318293331933       263.78389352085446       264.7779582955867        277.75483599662635       277.26530232780226       277.3256535129295        271.7851755119697
3                        262.3094273783468        255.4332702397481        259.6037946262414        265.07837583988015       256.53320321466435       254.2821305327911        252.37593539682985       247.17432317658927       264.81315457482          246.19086463405418       237.28429711148186       257.85333776013624       261.81737386306213       234.72501825233684       254.6174496033147        257.9059889533043        237.09631447349162       255.70034756906165       254.35554429229157       251.7631110889986        245.95551552363918       245.4072823236929        237.39433149528088       234.2346983366413        274.933984894125         274.8530168793848        271.4442719431167        263.135714659006         264.10340228330136       264.0005859308168        263.0573434330527        263.1336922675209        264.1050603043332        277.46813018066763       276.90671877599823       276.9911246591123        271.3219413954434
3.25                     261.49689139573707       254.8172090689861        258.7499535248017        264.4669995313931        255.8605764569376        253.34219549017226       251.61921235158724       246.2306104890655        264.3432924151444        245.41384663364684       236.4350680507064        256.9798152631288        261.2690857851513        233.98844983605326       254.25658626230646       257.38113930967944       236.3677032918267        255.23751981170486       253.66485699563333       251.25751554434768       245.3177170943865        244.85482301130503       236.7645771310575        233.69090731522422       274.45984674774394       274.38656152280987       270.9706318572939        262.48530515712105       263.43028873571285       263.31569635786326       262.4015039327861        262.48349101418745       263.43216231307974       277.1814243647089        276.5481352241942        276.65659580529507       270.85870727891705
3.5                      260.68435541312726       254.2011478982241        257.89611242336196       263.8556232229061        255.18794969921083       252.4022604475535        250.86248930634466       245.28689780154164       263.87343025546886       244.63682863323953       235.5858389899309        256.1062927661213        260.7207977072404        233.25188141976972       253.89572292129827       256.85628966605464       235.63909211016176       254.77469205434812       252.97416969897512       250.75191999969672       244.67991866513384       244.30236369891716       236.1348227668341        233.1471162938071        273.98570860136283       273.920106166235         270.4969917714711        261.83489565523604       262.7571751881244        262.63080678490974       261.7456644325195        261.833289760854         262.75926432182627       276.89471854875023       276.18955167239017       276.32206695147784       270.3954731623908
3.75                     259.8718194305176        253.5850867274621        257.04227132192227       263.24424691441914       254.51532294148413       251.46232540493466       250.10576626110202       244.34318511401787       263.4035680957933        243.85981063283225       234.7366099291554        255.23277026911387       260.17250962932957       232.51531300348609       253.53485958029006       256.33144002242983       234.9104809284968        254.31186429699133       252.28348240231688       250.24632445504574       244.04212023588119       243.74990438652932       235.5050684026107        232.60332527239          273.5115704549818        273.4536508096601        270.0233516856483        261.1844861533511        262.084061640536         261.9459172119562        261.08982493225284       261.18308850752044       262.0863663305728        276.6080127327915        275.83096812058614       275.98753809766066       269.9322390458645
4                        259.05928344790783       252.9690255567001        256.18843022048253       262.63287060593206       253.84269618375737       250.52239036231583       249.34904321585944       243.39947242649401       262.9337059361177        243.0827926324249        233.8873808683799        254.3592477721064        259.6242215514187        231.7787445872025        253.17399623928188       255.806590378805         234.18186974683186       253.84903653963454       251.59279510565867       249.7407289103948        243.40432180662853       243.19744507414148       234.8753140383873        232.05953425097294       273.03743230860067       272.9871954530851        269.54971159982557       260.5340766514661        261.4109480929475        261.2610276390027        260.43398543198623       260.53288725418696       261.4134683393193        276.3213069168328        275.47238456878216       275.6530092438434        269.46900492933815
4.25                     257.0392644771249        252.11564845917903       254.78609588257183       260.43665175351157       252.89288705769746       249.16560339930763       248.33106665768844       242.09274924094342       260.72891786124023       242.0880375657482        232.83273599441335       252.89009947349007       257.5726357038722        230.9179942723759        252.3110585455994        254.43817889888084       233.19230389129382       252.90560690197378       250.1552145963708        248.7327978844379        242.11060027922068       242.20602262732334       233.78499279456955       231.20701085928627       271.8912093787692        271.8457079982811        268.54264754362947       259.9129570665555        260.77706695182974       260.61903979198735       259.80916696464516       259.91149928077493       260.77899789908656       276.0154760274568        275.0859303467348        275.30150794210095       268.8899560456505
4.5                      254.9853485220913        251.25560932640732       253.36836400549882       258.19594251631725       251.935296748411         247.79711438905014       247.30575607800336       240.7758354678193        258.47542619633316       241.0871700900534        231.77232459896965       251.4042305099748        255.47884863169517       230.0537578696288        251.43402640372017       253.0460865865478        232.1954124033808        251.94868560063986       248.6966669780524        247.71076507976835       240.79846539514807       241.20227741770015       232.68174231827655       230.3458205990845        270.7261193944591        270.68527075070443       267.52060897922104       259.29265972085176       260.14428715978045       259.9782563007623        259.185219333146         259.29092016620837       260.14560621367224       275.7091082507551        274.6986937271883        274.94953018246576       268.30765595977044
4.75                     252.93143256705773       250.39557019363562       251.95063212842572       255.9552332791229        250.9777064391245        246.42862537879265       246.28044549831824       239.4589216946951        256.22193453142603       240.0863026143586        230.71191320352594       249.9183615464595        253.3850615595181        229.1895214668818        250.55699426184094       251.65399427421477       231.19852091546772       250.9917642993059        247.23811935973401       246.6887322750989        239.48633051107547       240.1985322080769        231.57849184198355       229.4846303388827        269.56102941014905       269.5248335031277        266.4985704148126        258.672362375148         259.5115073677312        259.3374728095372        258.56127170164683       258.6703410516418        259.5122145282579        275.40274047405336       274.31145710764173       274.5975524228306        267.72535587389035
5                        250.8775166120241        249.53553106086392       250.53290025135271       253.71452404192863       250.020116129838         245.06013636853513       245.2551349186332        238.142007921571         253.96844286651896       239.08543513866377       229.65150180808223       248.43249258294426       251.29127448734098       228.3252850641348        249.67996211996171       250.2619019618817        230.20162942755465       250.034842997972         245.77957174141562       245.66669947042934       238.17419562700286       239.19478699845368       230.4752413656905        228.62344007868097       268.39593942583895       268.36439625555107       265.47653185040417       258.0520650294442        258.87872757568186       258.69668931831217       257.93732407014767       258.04976193707523       258.87882284284365       275.0963726973516        273.9242204880952        274.24557466319544       267.14305578801026
5.25                     248.8236006569905        248.67549192809216       249.11516837427962       251.4738148047343        249.0625258205515        243.69164735827758       244.22982433894808       236.82509414844688       251.71495120161185       238.08456766296896       228.59109041263852       246.94662361942895       249.19748741516392       227.46104866138776       248.8029299780825        248.86980964954867       229.20473793964163       249.07792169663804       244.32102412309726       244.64466666575981       236.86206074293025       238.19104178883043       229.3719908893975        227.76224981847923       267.23084944152885       267.20395900797433       264.4544932859957        257.4317676837404        258.24594778363263       258.0559058270871        257.3133764386485        257.4291828225087        258.2454311574293        274.7900049206499        273.5369838685487        273.89359690356025       266.56075570213017
5.5                      246.9782786341107        247.78756659996952       247.72412841956495       249.42194461750725       248.09148918412896       242.36079345913265       243.19939730475198       235.5503381646659        249.64235445446766       237.08569088145234       227.56095897844236       245.47980172468073       247.30955018861923       226.5988544851466        247.88509582284604       247.49503920428228       228.2082156264569        248.09551156244567       242.90018844166957       243.60147163552801       235.58110095386954       237.1766918046365        228.29238140085332       226.88915453323546       266.10421563942003       266.07688655757977       263.41056839065476       256.817497121988         257.6206943202931        257.42363976210015       256.6959737141528        256.81463718636684       257.61956839531626       274.48167727995803       273.14883889179686       273.54180605729016       265.9764043100843
5.75                     245.3629420903687        246.89570899347805       246.41386598844235       247.6217618779596        247.13163228748462       241.11321730784198       242.1926946404892        234.3635717283289        247.82017023640367       236.1164201125839        226.59282198052168       244.09621889481616       245.6557739023339        225.76041156420536       246.96241642493456       246.19777163056432       227.2500026274938        247.12068725278044       241.57458473225242       242.57555137777732       234.38331365123685       236.18773230496438       227.27682483430632       226.03304539275504       265.02885886126387       264.99998316853953       262.38223605982245       256.2120579121548        257.0058135617105        256.8029067147666        256.0879786839485        256.20895693200424       257.00414460743946       274.1705210022319        272.7584728055848        273.1896231000352        265.39844502442935
6                        243.93570977818882       246.00861593182285       245.1849543335853        246.04037539276717       246.18865930516486       239.9461898997647        241.21413630952512       233.2611260415817        246.21796700456406       235.17952256244737       225.6839051542201        242.79924150623697       244.19566021154284       224.94779377599738       246.04772158363335       244.98127672707406       226.33440378523167       246.1626895938298        240.34283988670117       241.5758462930898        233.26807758748828       235.23057679101947       226.32496339308503       225.19979160954804       263.9980835194874        263.96809603543636       261.3784799658604        255.61449261816534       256.4000340584948        256.19224405168086       255.48833047132453       255.6111863580599        256.3978951492812        273.8568524352682        272.3659270848392        272.83694139255647       264.82828950096587
6.25                     242.50847746600897       245.12152287016764       243.95604267872827       244.45898890757476       245.2456863228451        238.77916249168746       240.23557797856108       232.15868035483444       244.61576377272445       234.24262501231078       224.77498832791852       241.50226411765783       242.73554652075177       224.13517598778947       245.1330267423321        243.76478182358377       225.41880494296953       245.2046919348792        239.11109504114995       240.57614120840222       232.15284152373977       234.27342127707456       225.37310195186376       224.36653782634104       262.9673081777109        262.93620890233325       260.37472387189825       255.0169273241759        255.79425455527905       255.5815813885951        254.8886822587005        255.01341578411564       255.791645691123         273.5431838683045        271.9733813640936        272.4842596850778        264.25813397750244
6.5                      241.42813422457402       244.33731782287114       242.95555373106163       243.28514410101806       244.41782473548602       237.82855926414925       239.39245130959387       231.2726447429191        243.4308032442807        233.44253523793597       224.0276645072837        240.45600141356323       241.6390052956716        223.4370554977646        244.33505405012525       242.77988856343174       224.65954149725312       244.36938638597897       238.1259403481158        239.72009262021263       231.26152656801742       233.46151076025336       224.6011718528459        223.65456640061504       262.0763240672183        262.0448661056846        259.49844643536227       254.4438942491937        255.2147797141484        254.9989928596535        254.3144073446591        254.44026298032784       255.21188640626963       273.2253136962767        271.577939483325         272.1305615765632        263.7385945214075
6.75                     240.39839407664508       243.56812175755283       241.98838637402923       242.17075020084854       243.60675523866556       236.90952731967639       238.56908098821341       230.41817835637266       242.3067087773975        232.6624025543232        223.303913369288         239.4463121840814        240.5955008856144        222.75563751575962       243.55410842023596       241.82878062718405       223.92308377058902       243.5519787786426        237.17675745586126       238.88500019276162       230.40287652371205       232.6707881296776        223.8554895756882        222.96028726615398       261.20573226465507       261.1740254775939        258.6407651869619        253.8744398576497        254.63914211491257       254.4204996976606        253.74383380811562       253.87070133991244       254.63599142510807       272.90683060723336       271.1820751197837        271.776715198642         263.2264387790296
7                        239.36865392871607       242.79892569223452       241.0212190169969        241.05635630067906       242.79568574184515       235.99049537520352       237.74571066683296       229.56371196982624       241.18261431051428       231.88226987071042       222.58016223129238       238.43662295459947       239.55199647555725       222.07421953375464       242.77316279034665       240.87767269093635       223.1866260439249        242.73457117130624       236.22757456360677       238.04990776531068       229.54422647940672       231.88006549910185       223.10980729853057       222.2660081316929        260.3351404620918        260.3031848495032        257.7830839385615        253.30498546610562       254.06350451567675       253.84200653566776       253.17326027157213       253.30113969949704       254.06009644394652       272.58834751819006       270.78621075624227       271.42286882072085       262.71428303665164
7.25                     238.33891378078712       242.02972962691618       240.05405165996453       239.94196240050954       241.98461624502468       235.07146343073066       236.92234034545254       228.7092455832798        240.05851984363107       231.10213718709767       221.85641109329674       237.42693372511758       238.50849206550006       221.3928015517497        241.99221716045733       239.92656475468868       222.4501683172607        241.9171635639699        235.27839167135227       237.21481533785976       228.68557643510144       231.08934286852607       222.36412502137287       221.57172899723184       259.46454865952853       259.43234422141256       256.9254026901611        252.73553107456158       253.48786691644096       253.2635133736749        252.60268673502867       252.73157805908164       253.48420146278497       272.26986442914676       270.3903463927009        271.0690224427997        262.20212729427374