% Model:              PicC_fullinst_radshift.mph
% Version:            COMSOL 5.6.0.401
% Date:               Jul 18 2022, 10:37
% Table:              Table 3 - Point Evaluation 1
% Time (h)               Temperature (K), Point: 476Temperature (K), Point: 499Temperature (K), Point: 533Temperature (K), Point: 555Temperature (K), Point: 574Temperature (K), Point: 585Temperature (K), Point: 613Temperature (K), Point: 625Temperature (K), Point: 651Temperature (K), Point: 657Temperature (K), Point: 724Temperature (K), Point: 733Temperature (K), Point: 736Temperature (K), Point: 795Temperature (K), Point: 811Temperature (K), Point: 849Temperature (K), Point: 879Temperature (K), Point: 909Temperature (K), Point: 926Temperature (K), Point: 960Temperature (K), Point: 989Temperature (K), Point: 1015Temperature (K), Point: 1040Temperature (K), Point: 1073Temperature (K), Point: 1184Temperature (K), Point: 1273Temperature (K), Point: 1319Temperature (K), Point: 1451Temperature (K), Point: 1468Temperature (K), Point: 1905Temperature (K), Point: 1947Temperature (K), Point: 2341Temperature (K), Point: 2542Temperature (K), Point: 2822
0                        278.0400000000005        275.1699999999998        272.40000000000066       270                      268.5                    268.7999999999996        264.4000000000002        265.7000000000004        270                      259.40000000000003       258.7000000000003        270                      275.79999999999967       249.6699999999999        273.90000000000003       270.20000000000005       240.81417661634615       266                      266.40000000000015       262.3                    262                      257.5                    256.70000000000005       248.5                    277                      277                      277                      275.79999999999967       280                      280                      275.7999999999996        275.79999999999984       280                      273.6000000000001
0.25                     265.6976457406643        264.03765469240506       267.4294967439057        266.9502161406018        263.34337937273415       263.2873663903126        259.25688348773775       256.6363285692372        265.96304077520495       253.65025648595477       245.95921433989477       265.2657282284284        263.6796256939183        242.10645072273337       261.485697358334         264.33504117655326       240.5819904116029        261.1761356445265        261.3469502723892        257.2179585393862        253.72555048122257       251.75369113211417       244.34648839294496       240.76404570583662       273.2265236399283        273.12877685804824       271.92801197960114       270.24309814466795       273.53785766887484       273.3360044676797        270.15834422013063       270.2766516101556        273.60548992708175       273.66952676704574
0.5                      262.09230709573126       260.6841436476503        265.2632205117982        264.4905449542131        261.34432949025376       260.4728358053774        257.1131414144172        253.61419523062943       263.4865543340876        251.19135506975252       242.96306837013003       262.61080808082363       260.2306675145178        239.90891683637147       258.3634101149789        262.11190068882604       239.84350872729252       259.3093336133127        258.84040407435083       255.23481777646757       250.8656484973754        249.38441710015172       241.6142181151486        238.54644388862678       271.89302320641843       271.7885713470449        270.3317751617391        269.0516122066886        271.7516009119746        271.5633450171423        268.95378457836364       269.0767677065904        271.8045051792655        273.32547037764067
0.75                     259.57670626716947       258.26357293525825       263.3301452247829        262.18502181498866       259.5845270575226        258.20301801734445       255.22008470737225       251.3314530846261        261.2693412994414        249.19500636807993       240.95865812283117       260.32373949095467       257.96030759365016       238.09301850471817       256.11638182735123       260.2710002565035        238.83668023753293       257.6598967413029        256.7655703605664        253.4862845165653        248.74080858753604       247.4764767792228        239.8114928810472        236.7707077525354        270.5508442771229        270.4527384110159        268.8835856217188        267.93815142537454       270.2188208151917        270.04182812798655       267.83737163639955       267.9573218699928        270.25911258265586       272.61780776211344
1                        257.81447927856516       256.2174774290544        261.488161906144         260.23796721364727       257.8880357669115        256.19497869809817       253.4309084527278        249.35673588704353       259.47226418861663       247.39366200255546       239.27805155917068       258.30074987611374       256.6727526191193        236.44204129856982       254.23955063134292       258.5896623355769        237.71083791984148       256.0819235896586        254.9225969028477        251.8349136247253        246.9223511535157        245.7657813490075        238.29455852257553       235.1872208069652        269.20685822121766       269.12013418999237       267.4941189466347        266.8550074954344        268.82355759694116       268.65612926739055       266.75363616044064       266.8696293731224        268.85397735182045       271.7368507354903
