% Model:              PicC_fullinst_meshupdate.mph
% Version:            COMSOL 5.6.0.401
% Date:               Apr 28 2022, 15:11
% Table:              Table 1: Tsense - Tsense Eval
% Time (h)               Temperature (K), Point: 950Temperature (K), Point: 955Temperature (K), Point: 1264Temperature (K), Point: 1283Temperature (K), Point: 1353Temperature (K), Point: 1469Temperature (K), Point: 1480Temperature (K), Point: 1484Temperature (K), Point: 1716Temperature (K), Point: 1754Temperature (K), Point: 1825Temperature (K), Point: 1826Temperature (K), Point: 1933Temperature (K), Point: 1988Temperature (K), Point: 1989Temperature (K), Point: 2928Temperature (K), Point: 3088Temperature (K), Point: 3338Temperature (K), Point: 3339Temperature (K), Point: 3464Temperature (K), Point: 3467Temperature (K), Point: 3567Temperature (K), Point: 3653Temperature (K), Point: 3719Temperature (K), Point: 3724Temperature (K), Point: 3732Temperature (K), Point: 3749Temperature (K), Point: 3872Temperature (K), Point: 3880Temperature (K), Point: 3996Temperature (K), Point: 4004Temperature (K), Point: 4028Temperature (K), Point: 4163Temperature (K), Point: 4202Temperature (K), Point: 4215Temperature (K), Point: 4222Temperature (K), Point: 4341Temperature (K), Point: 4349
0                        273.9995686766194        273.9993549683244        273.9996113322985        273.9995731581649        273.99993047778884       273.99993300995624       273.99996247722055       273.9999408757141        260.00082822305177       280.0000061422265        280.0000048626379        280.0000032536616        280.00001145688196       280.000010460509         280.00001263076973       280.0000051467721        280.001378039871         274.00039564229985       274.00039484948707       280.00107029382684       260.00107434322257       260.0007701935797        260.0007670021045        273.999287173333         260.00156911123184       260.0015754058479        260.00060850841334       260.0010859873167        260.00108743097337       260.0007505358719        260.00075277266217       274.00174245057957       259.9989361728761        259.99999084401384       249.9994515011932        249.9994354935139        250.00043293983666       250.00044035583406
0.25                     270.9110722877819        270.91635240863246       272.5097420434752        272.5478960950498        273.3784107054252        273.83303947995927       273.8278084525937        273.80196280969056       259.27621716132734       279.99379311290176       279.9898835223204        279.7841298544095        279.99650709847384       279.99318704897854       279.99269913429936       279.9807207398017        280.2779876206435        276.1746620013868        276.1766947824456        280.1320718255766        259.35532075241196       258.8831380065583        258.2431552725666        267.6227056396315        261.5350819001008        261.6195371762637        257.4329900759629        259.5676207465751        259.5591761102324        258.0798392482069        258.1036814647812        273.94574249748644       252.39069166479365       260.1125437561897        242.4483138578046        242.42760367106789       244.51362301034817       244.52097338223865
0.5                      267.7186092860557        267.7212386680252        270.66228517290995       270.73330304208173       272.52862813283963       273.6135037717864        273.6025791579383        273.5356477904335        257.56041249638764       279.9701951653677        279.95843141970437       279.54986855079795       279.9816395853202        279.9725411830362        279.97163074801415       279.9412762461454        279.9093312316703        276.61389834731926       276.613642124057         279.50598851632026       257.4508606992062        256.5916964476733        255.28488095201394       261.06007041336306       260.5907974815006        260.7364071635478        253.42040372550517       257.4330336328123        257.4057851128323        254.95534612333682       254.99880429276848       272.3223391378978        245.59839319918487       260.0447062572335        235.47386177772356       235.44887248118278       239.25485892906968       239.2627624358272
0.75                     265.0916834212462        265.0921276453656        268.8347925413065        268.93030242478847       271.60983487123684       273.34368588170486       273.3278043032463        273.2115751087176        255.93996598010347       279.9315914233382        279.9096555607706        279.30220646346186       279.95712079266394       279.9409491863711        279.9396739515417        279.88522605100076       279.23870401239043       275.97400285899164       275.97337073623976       278.5874817475057        255.6394179519653        254.4552374282178        252.5574165505681        255.8489490685917        258.9260476612169        259.1037337228477        249.68958694939911       255.0831470092986        255.04254896035698       251.94305521370433       251.99812246328997       270.33949318550526       239.9626584690342        259.86172151183104       229.7796842305458        229.75538829988218       234.91779136220967       234.92550660666697
1                        262.66378214832145       262.6623777942754        267.0470695007708        267.16435306158996       270.67757724288805       273.054823873544         273.03427733984677       272.866502500274         254.37632744895888       279.8884949885108        279.8557583064111        279.0511444502743        279.92966734162997       279.90608847648156       279.90446733705926       279.8240693795555        278.53067546676374       275.16254214514106       275.16181211789194       277.6452503364326        253.89586157952397       252.41302849851223       249.9632334393115        251.09833638172844       257.19984224809696       257.4030750159665        246.1454942140136        252.77481044984737       252.72315779363444       249.05502257701312       249.11975545769246       268.31503764499024       234.72457944808133       259.6474977739707        224.5263595722987        224.50326379687          230.9089207721974        230.91663504088035
1.25                     260.75649340938236       260.75414018290576       265.3889238796433        265.52101448807645       269.7171806533897        272.7142747753695        272.68986108971626       272.46505734549953       252.97119856322144       279.83415329952965       279.7890853535525        278.79217702448597       279.8948212095695        279.8630355733788        279.8611171727109        279.7499646813921        277.78038263695623       274.06548417267277       274.0651020012047        276.7037713545394        252.3477932467832        250.63994811162408       247.7515161932191        247.53415744101451       255.45380640112523       255.6684687681637        243.1508306605559        250.65969627396427       250.6031016090063        246.55337062712266       246.6233496306024        266.2448313481228        230.52928272436736       259.357849220653         220.42487255850432       220.40343343749532       227.76365542138316       227.77211886561818
1.5                      258.84920467044327       258.84590257153604       263.7307782585158        263.877675914563         268.75678406389136       272.373725677195         272.3454448395857        272.0636121907251        251.56606967748402       279.77981161054845       279.72241240069394       278.5332095986977        279.8599750775091        279.81998267027603       279.8177670083626        279.6758599832287        277.0300898071487        272.96842620020453       272.96839188451753       275.76229237264624       250.79972491404237       248.86686772473593       245.5397989471267        243.96997850030058       253.7077705541535        253.93386252036092       240.1561671070982        248.54458209808118       248.48304542437816       244.05171867723223       244.12694380351232       264.17462505125536       226.3339860006533        259.06820066733525       216.32338554470996       216.30360307812066       224.61839007056895       224.62760269035599
1.75                     256.9484287370217        256.9441853266173        262.07519790867246       262.23681989255755       267.79628129932087       272.03243606689966       272.0002997224722        271.66138685640885       250.16317355514326       279.72533610125316       279.65558802842514       278.2741786519866        279.82503793663074       279.77682953793055       279.7743171969848        279.601591097577         276.2808926228791        271.87223792628674       271.87255155714723       274.82257120324965       249.25446785958368       247.09763329920168       243.33367115636108       240.4195750571416        251.96497234225086       252.20239427437184       237.16981643723972       246.4341390331997        246.36772151256574       241.55659160004987       241.63702295119813       262.1059394796277        222.1521153442831        258.7777477476026        212.23626996767274       212.21813713808146       221.48410926724543       221.4940786627582
2                        255.46405226967647       255.4593509598227        260.5836294566526        260.75468703826976       266.82899017861064       271.64380144516093       271.6085541316082        271.20928035432456       248.90303027314718       279.66230472349207       279.5790825807105        278.0110864634194        279.784282101632         279.7272681990072        279.7244964031295        279.5168248030496        275.6017460820297        270.83165426256284       270.8323216431696        273.9952366517331        247.88895128294536       245.5742923292619        241.48490797712483       237.74991491445226       250.4291739417957        250.67155573800343       234.7149541225893        244.62234577780868       244.55495782130487       239.47863551078876       239.56172219262734       260.1344822339792        218.8286469937111        258.43586726031634       209.06799936095285       209.0510675060099        219.05213098131273       219.0633430734445
2.25                     253.9796758023312        253.97451659302808       259.0920610046327        259.27255418398204       265.8616990579004        271.25516682342226       271.2168085407441        270.75717385224027       247.64288699115104       279.5992733457309        279.50257713299584       277.7479942748523        279.7435262666333        279.67770686008384       279.6746756092741        279.4320585085222        274.9225995411803        269.791070598839         269.792091729192         273.1679021002165        246.52343470630697       244.05095135932217       239.63614479788856       235.0802547717629        248.89337554134056       249.14071720163508       232.26009180793886       242.81055252241765       242.74219413004406       237.4006794215277        237.48642143405655       258.16302498833073       215.50517864313906       258.09398677303017       205.89972875423302       205.88399787393834       216.62015269538          216.6326074841308
2.5                      252.49529933498593       252.48968222623355       257.60049255261276       257.79042132969425       264.8944079371902        270.8665322016835        270.8250629498801        270.305067350156         246.38274370915497       279.53624196796983       279.4260716852813        277.4849020862853        279.7027704316346        279.6281455211605        279.6248548154187        279.3472922139947        274.243453000331         268.7504869351151        268.75186181521434       272.34056754869994       245.15791812966862       242.52761038938243       237.78738161865235       232.4105946290735        247.35757714088544       247.6098786652667        229.80522949328844       240.99875926702663       240.92943043878319       235.3227233322666        235.41112067548576       256.1915677426823        212.18171029256706       257.75210628574393       202.73145814751317       202.71692824186675       214.1881744094473        214.20187189481712
2.75                     251.23976044402096       251.23385782621966       256.2310478453373        256.42768403474633       263.9346833444991        270.44970368495893       270.4055882366854        269.8243966446626        245.21758894747705       279.4684794130442        279.34425447207076       277.2208753678982        279.65864965773943       279.574909435539         279.57137887281306       279.2563520042869        273.6381877003181        267.839073771234         267.840731742048         271.6126505476798        243.90829962577874       241.15726254456803       236.15970247061662       230.2030013766397        246.01406117181634       246.26939520684618       227.6822473731338        239.41085359816321       239.342059269817         233.52227511354528       233.61225339418544       254.33462814327177       209.35021383153497       257.3849348370733        200.07600813560651       200.06234325251387       212.15427234810556       212.16930827400716
3                        250.0360285746935        250.02987947566973       254.88925099024803       255.09197695233593       262.9766717540474        270.0264922928749        269.9798358689933        269.33725922890477       244.07393883728724       279.39964575694006       279.26123471706484       276.9566370793338        279.61376708822945       279.52084141626085       279.5170754333715        279.1640140688978        273.0496485302669        266.9569037892906        266.9588288541722        270.9072408956326        242.6849195310592        239.82155113608164       234.58207500276941       228.10001642219646       244.7140764279983        244.97200663606628       225.63440031029478       237.87363431229272       237.80571518942668       231.78465248702364       231.87596847092615       252.50361443536195       206.63009592436447       257.0120377143049        197.53665665992753       197.5237807424853        210.21049160296965       210.22688764506947
3.25                     248.83229670536602       248.82590112511974       253.54745413515877       253.75626986992555       262.01866016359577       269.6032809007909        269.55408350130114       268.8501218131469        242.93028872709743       279.33081210083594       279.17821496205886       276.6923987907694        279.56888451871947       279.4667733969827        279.4627719939299        279.0716761335088        272.4611093602156        266.0747338073472        266.07692596629636       270.2018312435854        241.46153943633965       238.48583972759525       233.0044475349222        225.99703146775317       243.41409168418028       243.67461806528635       223.58655324745575       236.33641502642226       236.26937110903634       230.047029860502         230.1396835476668        250.6726007274522        203.90997801719394       256.63914059153655       194.99730518424852       194.98521823245665       208.26671085783377       208.2844670161318
3.5                      247.74965206417903       247.7430805914664        252.2861757944381        252.49976149967173       261.07247772127545       269.16510174187346       269.11363456610775       268.3485779644467        241.84952864533577       279.2593943950978        279.0923354824067        276.4284486274875        279.5220682355184        279.4106237464536        279.40639676536574       278.97579697204173       271.9213593588792        265.29012866309006       265.2925436183864        269.5596494826372        240.31176538445658       237.24283160195134       231.5565699264754        224.13141872122233       242.24209308520977       242.50463065796262       221.73193993959725       234.9419353580261        234.87625832815198       228.47710120772055       228.57064550737869       248.9333078251922        201.4593589018692        256.2546117235278        192.73301344343972       192.72155554994336       206.5396426938547        206.55871685700856
3.75                     246.74268205439466       246.73597880433982       251.07521827606584       251.29274912864128       260.13368801920024       268.7175683326736        268.66400086927086       267.8380306764946        240.80807229356512       279.18636176261157       279.00466879024805       276.1646785308807        279.47404345929095       279.3531731603918        279.348726752202         278.8777046871738        271.41210061921953       264.56649760539125       264.56910767274707       268.95698260221576       239.2079921391506        236.057759287265         230.18978074440878       222.41415402604954       241.15008066219443       241.41426383683014       219.99808993111597       233.63666219063578       233.5726593297026        227.0119745216379        227.10613002009995       247.25133672528978       199.17716565646944       255.86281348411515       190.64062293754765       190.6296941667026        204.94801114818114       204.96837699830135
4                        245.73571204461027       245.7288770172132        249.86426075769356       250.08573675761085       259.1948983171251        268.2700349234737        268.21436717243404       267.32748338854253       239.7666159417944        279.1133291301254        278.91700209808937       275.9009084342738        279.4260186830634        279.29572257433          279.29105673903837       278.77961240230576       270.9028418795599        263.84286654769244       263.84567172710774       268.35431572179425       238.10421889384466       234.8726869725786        228.8229915623422        220.69688933087676       240.05806823917908       240.3238970156976        218.26423992263466       232.33138902324544       232.26906033125317       225.54684783555527       225.64161453282122       245.5693656253874        196.89497241106963       255.47101524470247       188.54823243165555       188.53783278346185       203.3563796025076        203.3780371395941
4.25                     244.75365536388514       244.74670170404036       248.67190820995998       248.89708147909573       258.2599017766689        267.81958929159833       267.76187991413474       266.814284398267         238.74013962195048       279.0397492754641        278.8287379338664        275.63732737527107       279.3775686034865        279.2378198293953        279.23293650014324       278.6807493716648        270.40435291531986       263.14182700601236       263.1448182257452        267.76547866836205       237.01751624929088       233.7085119522225        227.48451898270363       219.02730038711104       238.99502896757252       239.26241907594738       216.5718385320073        231.05829579394353       230.9977022648551        224.11863766779697       224.2139386904373        243.91014534965944       194.66808821781174       255.07717806265282       186.5116528842526        186.50175350520996       201.80964732222262       201.832576689136
4.5                      243.83013914564387       243.82309774076114       247.52327296644927       247.75156104952623       257.3338182736845        267.3623006215296        267.3026874576926        266.29485453133833       237.74886285311513       278.9648835774242        278.7390698508464        275.3741905101674        279.32811916109034       279.1788546174785        279.17375833669394       278.58007526977343       269.93117038975026       262.4938722123721        262.49702815596333       267.20913845491873       235.9709255006839        232.59344065750048       226.21258375735306       217.46973824353725       238.0000697859071        238.2688232114004        214.97683164264157       229.86081784889052       229.80210280417          222.77717263357206       222.87282734711164       242.30438415866067       192.57116728575568       254.67854984506315       184.60621595989534       184.59674905106579       200.36841775314866       200.39257229028237
4.75                     242.9398000741598        242.93268842933014       246.39941401196143       246.6304868090214        256.4127861341454        266.9011337367564        266.8396949058401        265.7718933853528        236.77753503275147       278.88928914215415       278.6486061126849        275.11130538694556       279.2781033410895        279.1192872643846        279.1139806064372        278.4783747636804        269.47233000283234       261.8760026008701        261.8793111874569        266.67121545896407       234.9470677166294        231.50619834537548       224.97835782698218       215.97566602527334       237.04369422725003       237.31369874724274       213.43702198822388       228.70619401322037       228.64943867869079       221.4848694252637        221.5807754571514        240.7289203008962        190.5479015659577        254.27720636212558       182.7751026378174        182.76602977491766       198.9869806555483        199.01233391909673
5                        242.0834186966106        242.07625381797757       245.3019908497943        245.53552266594897       255.49771207194306       266.43613847602245       266.37295534970957       265.24553794311765       235.82775915692213       278.8129391835394        278.55732251809656       274.8487532964084        279.227491239369         279.05908947155666       279.05357502391297       278.37560102283834       269.0282649847011        261.2895196521191        261.2929690653632        266.15228260755987       233.94756452711812       230.44840856130088       223.7836197185822        214.5463459724788        236.12772568032474       236.39887713523277       211.95474567824033       227.596653580921         227.54192349576513       220.2440360854701        220.3400952447612        239.1865209159187        188.6005211301739        253.87326673461092       181.0202819597527        181.01156649159162       197.6671262819822        197.69364564892615
5.25                     241.26434716012812       241.25714391104827       244.23813040241822       244.47381446084376       254.59249007126968       265.96752887738444       265.902696795107         264.7163764926148        234.90641947145707       278.7357186656153        278.46511513195554       274.5868833509997        279.1761544293631        278.99813970767775       278.99242011404954       278.27155292822465       268.60083589061384       260.7400127201361        260.7435922797285        265.65480040003484       232.97938020346723       229.42704380276317       222.6360075151837        213.1871989166564        235.25999489188587       235.53222374972967       210.5400353960905        226.54177050429138       226.48906383966144       219.06458476120355       219.16071681532966       237.6890697939448        186.73860327091697       253.46724253998914       179.35021019559588       179.3418230857249        196.4165430722488        196.44416938224558
5.5                      240.48057475438196       240.4733492835146        243.2035577451144        243.44107592140992       253.69478441297767       265.495176554911         265.4287824778596        264.1840561624827        234.00938661578138       278.6576965901272        278.3720462974178        274.32548614344415       279.12416994486927       278.93651087058464       278.93058874094623       278.1663511165776        268.18892670819736       260.22412915617986       260.22782750038976       265.1772929610102        232.03833738360694       228.43792177340913       221.5309396838616        211.8949732935181        234.43580476399129       234.70902072219894       209.1868732614846        225.53580206261165       225.48515739886307       217.9405698732247        218.0366838176881        236.2294387097466        184.95640326391467       253.05882691998002       177.75981504136826       177.7517226858062        195.23061928804455       195.25930929857003
5.75                     239.73198951565024       239.72475788086706       242.19824754820468       242.43728361226277       252.80462985443387       265.0191080993576        264.95123879311353       263.64860748933023       233.13665997151887       278.5788748029676        278.2781183864585        274.0645658082257        279.07153861103444       278.874204086716         278.8680820195009        278.0599977691977        267.79248089405587       259.74176146452527       259.7455673044429        264.71969081549355       231.1244240835206        227.481006117853         220.46833750815375       210.6694473058012        233.65504857173434       233.9291619232159        207.8951229151045        224.57865317742775       224.53010795615026       216.87187557269704       216.96788108574268       234.80763500901858       183.25369863102947       252.64804199634523       176.24885617859624       176.24102522502375       194.10916875573162       194.138879043099
6                        239.00924900553542       239.00201968924102       241.2200862613901        241.46048204609244       251.9249266079057        264.54154228740197       264.4722681955673        263.1125784983745        232.28818794032404       278.49940732848506       278.1835293206164        273.80446733351675       279.01832927950454       278.8113133479802        278.80499297864384       277.95267489741144       267.4067803735977        259.2839400238387        259.2878481468362        264.27619685505834       230.23664033702082       226.5532632824905        219.44163275607227       209.49211382253716       232.90882101213032       233.18379173781113       206.65340630959636       223.66239034506756       223.61588698734067       215.84883524081235       215.9446989698912        233.4242716286787        181.61192542797735       252.23673364551271       174.79728103580388       174.78969913098544       193.03665683862596       193.06732886261193
6.25                     238.31728537679217       238.31007086070693       240.27018969111072       240.51170358315775       251.0541435645631        264.0613077604504        263.99070794348836       262.5746240108667        231.4639977625073        278.41921285261753       278.08817461118934       273.545008589739         278.96450560143575       278.7477890332366        278.7412725056193        277.84428641199383       267.0343159595642        258.8554001655921        258.85940215119075       263.8498715466918        229.37551405617683       225.65629477103286       218.45429299380427       208.37274331189545       232.20182346107038       232.47758531008594       205.46773025658817       222.791201899489         222.74673299056263       214.8765521748636        214.9722106916782        232.0790249809888        180.04088411637693       251.8239273740877        173.41567596544388       173.40831967009944       192.02128473622767       192.05286793708058
6.5                      237.65609862942057       237.64891139526478       239.3485578373664        239.59094822345878       250.1922807244062        263.57840451850296       263.5065580368767        262.03474402680695       230.6640894380686        278.33829137536503       277.99205425817746       273.28618957689247       278.910067576828         278.6836311424851        278.6769206004273        277.73483231294483       266.6750876519551        258.4561418897856        258.46022931750645       263.4407148903939        228.54104524098867       224.79010058348018       217.50631822134972       207.31133577387604       231.5340559185546        231.81054264004032       204.3380947560798        221.96508784069215       221.92264596581612       213.9550263748508        214.05041625110383       230.77189506594908       178.5405746962282        251.4096231820703        172.1040409675163        172.0968868423657        191.0630524485366        191.09549626650514
6.75                     237.01661944554775       237.009466018348         238.45060341810392       238.6937567335431        249.34056199101977       263.09485441335295       263.0218207677114        261.49511576044927       229.88577079625657       278.25681667186046       277.8953771460653        273.02820163153444       278.85511808938105       278.6189623118463        278.61205906485674       277.6245459677303        266.32429487777955       258.0757384152677        258.0799072198422        263.04269726078155       227.72971726312582       223.9494412345921        216.589157601176         206.29029885595796       230.8944145793408        231.17158519493464       203.25074959308137       221.1731312330239        221.1326589894756        213.07182535617574       213.1669237505691        229.4986110658679        177.0915194122248        250.9952996281773        170.84208073800409       170.83511879271575       190.1456557500526        190.17890910580095
7                        236.4008353166025        236.39372352676207       237.57733171110593       237.82110633004262       248.49871915262452       262.61021436723377       262.5360573446521        260.955262087193         229.12963181157292       278.1747506602334        277.79809749896          272.77100282330446       278.79963459269464       278.55375566628476       278.5466612067114        277.5133762351459        265.98298965636315       257.71647471412325       257.72071987586213       262.6571400172928        226.94230077246118       223.1354649289141        215.70468500257982       205.31348782601654       230.28533278164176       230.56314077465112       202.20870805203373       220.41772446324828       220.379175402896         212.2296736298681        212.32444880668476       228.26010890709318       175.69798670795484       250.58063269434953       169.63424288182546       169.62746017880434       189.27266762265668       189.3066795507132