% Model:              PicC_fullinst_night.mph
% Version:            COMSOL 5.6.0.401
% Date:               Aug 3 2022, 09:44
% Table:              Table 3 - Point Evaluation 1
% Time (h)               Temperature (K), Point: 136Temperature (K), Point: 154Temperature (K), Point: 203Temperature (K), Point: 224Temperature (K), Point: 291Temperature (K), Point: 328Temperature (K), Point: 365Temperature (K), Point: 395Temperature (K), Point: 458Temperature (K), Point: 478Temperature (K), Point: 518Temperature (K), Point: 527Temperature (K), Point: 629Temperature (K), Point: 639Temperature (K), Point: 643Temperature (K), Point: 651Temperature (K), Point: 716Temperature (K), Point: 730Temperature (K), Point: 732Temperature (K), Point: 773Temperature (K), Point: 803Temperature (K), Point: 833Temperature (K), Point: 850Temperature (K), Point: 884Temperature (K), Point: 913Temperature (K), Point: 939Temperature (K), Point: 964Temperature (K), Point: 997Temperature (K), Point: 1152Temperature (K), Point: 1241Temperature (K), Point: 1287Temperature (K), Point: 1419Temperature (K), Point: 1436Temperature (K), Point: 1873Temperature (K), Point: 1915Temperature (K), Point: 2309Temperature (K), Point: 2510Temperature (K), Point: 2653Temperature (K), Point: 2663Temperature (K), Point: 2686Temperature (K), Point: 2790
0                        274.81186257705207       276.20000000000033       273.7797274688388        274.29999999999967       269                      265                      265                      264                      259.7000000000004        258                      265                      251.9000000000002        243.2999999999999        265                      276.2000000000001        274.6892216227331        235.99999999999997       272.96574093053414       273.1971998733883        265.40000000000003       234.92016478633147       261.7999999999999        260.7999999999998        256.2000000000001        252.39999999999992       249.09999999999988       239.7999999999999        233.7000000000002        274                      274                      274                      276.5                    278                      278                      276.5                    276.5                    278                      279                      279                      279                      264.29999999999984
0.25                     268.2240184268896        268.1424673277629        269.5458637831328        269.23115358672754       261.2281630552568        263.69521058666083       258.9644149421315        256.65074733611823       253.9308814710166        248.47324896406002       263.4752762836022        247.27196460442948       237.43914773947128       258.8186040523231        268.01638545820475       268.1166937273377        235.68133187833348       269.0889649100525        269.3362829756743        259.42271565106563       234.85184086191944       257.49305022279975       255.11135367308478       252.31633244403662       246.11570105114612       245.64868611984357       236.44598720335293       234.65039322967715       268.06611845274665       268.1177930668967        266.91491843281057       269.8233675485269        272.6798039249599        272.5727150596627        269.78007493737124       269.85062833963894       272.7180504372983        276.98723126983054       276.95891935554334       276.8618097625564        261.86081680786106
0.5                      266.18919257359767       266.11440346079365       267.66860650754785       267.3856490709091        258.4304635683048        262.13725256388943       256.90168529652755       253.1466423690631        251.80650410733347       245.4286873429353        261.95621446280273       245.34827048010285       235.97966022008947       255.4292218794543        266.01275782484294       266.10379819525065       235.34539314525063       267.2251704389415        267.4444891099477        257.1298053906313        234.5580230436712        255.9163320095317        252.39501301517052       250.77237277297525       243.93456392364646       244.21036744774798       235.57136441216252       234.62549651872223       266.2426339006567        266.2835924384688        264.83839676886595       268.6410639989178        271.00750643475664       270.90523157269234       268.5797388766061        268.66226029504907       271.03940200500466       276.20268738468155       276.21908344989123       276.07614385907493       260.36867256247837
0.75                     264.3527784212273        264.2816850858948        265.8574873680138        265.5976680545697        256.19067806041426       260.47599627002074       255.21320487362257       250.5275915858825        249.99936847941413       243.30577693717024       260.33952930968627       243.83096142141977       234.98454894420598       252.58604376850704       264.198631025888         264.2843668522929        234.8674495815203        265.42466147817265       265.6234143661588        255.25737331400023       234.1252072230523        254.50959805188995       250.16981298683913       249.36643297604715       242.3158766777309        243.00978369903453       234.88982713454624       234.35948885771828       264.4828241341782        264.5226357765132        262.98630302853604       267.53073342843135       269.55331630231456       269.45524019000436       267.4640061123223        267.5481135257661        269.5791237559911        275.5917797772528        275.63930231147367       275.4650287707981        258.89031304454
1                        262.5597654642545        262.49175558183083       264.0794332455408        263.8377589519283        254.23056798284517       258.8149263881409        253.67770065443494       248.3883744887083        248.36733403234544       241.60602996401852       258.7098204535142        242.50158784775746       234.15498541101906       250.16222441354992       262.4215463558977        262.5030772411227        234.3042979391467        263.6614743243288        263.84441426370086       253.57165542625108       233.61794951459686       253.15990660465752       248.23793753530072       248.0226263273309        240.94393365384755       241.90654055682194       234.24606231409794       233.95935612850712       262.77141712854683       262.81087211824695       261.25473004169544       266.4486624754155        268.2153769780452        268.1207244486911        266.3793748101254        266.46310908753065       268.23617763958737       275.04144726182784       275.1154028538482        274.91626413974467       257.43896069484475
