% Model:              PicC_fullinst_union.mph
% Version:            COMSOL 5.6.0.401
% Date:               Jun 20 2022, 12:05
% Table:              Table 1: Tsense - Tsense Eval
% Time (h)               Temperature (K), Point: 277Temperature (K), Point: 282Temperature (K), Point: 446Temperature (K), Point: 447Temperature (K), Point: 499Temperature (K), Point: 594Temperature (K), Point: 696Temperature (K), Point: 882Temperature (K), Point: 883Temperature (K), Point: 1236Temperature (K), Point: 1237Temperature (K), Point: 1455Temperature (K), Point: 1456Temperature (K), Point: 1688Temperature (K), Point: 1798Temperature (K), Point: 1800Temperature (K), Point: 1853Temperature (K), Point: 1996Temperature (K), Point: 2017Temperature (K), Point: 2020Temperature (K), Point: 2059Temperature (K), Point: 2060Temperature (K), Point: 2090Temperature (K), Point: 2092Temperature (K), Point: 2136Temperature (K), Point: 2137Temperature (K), Point: 2213Temperature (K), Point: 2214Temperature (K), Point: 2339Temperature (K), Point: 2352Temperature (K), Point: 2359Temperature (K), Point: 2490Temperature (K), Point: 2491Temperature (K), Point: 2696Temperature (K), Point: 2707Temperature (K), Point: 2746Temperature (K), Point: 2871
0                        259.918829718868         259.91618538498415       271.8566904978759        271.71539223050524       273.38801132683193       279.9999978260478        279.9654469419764        273.11882887096925       273.07167777262003       259.89379338055255       259.89467198583753       279.9999990052206        280.0000074329029        279.99976243782476       260.0014050683926        260.0013975628753        279.9652001970389        273.99989044801356       260.00135655714655       260.0013139714192        260.00176900641003       260.00180817123794       260.00117561652416       260.00118058564607       260.0013021506847        260.00125651218735       260.0012534688549        260.0011301493628        260.1035882475986        259.9990870605087        259.99912642889115       260.0000652407067        259.9995787308282        265.05452000787596       265.1005338169758        265.5611281280877        274.0017043714399
0.25                     268.7812214240901        268.5473542279872        264.9221518327681        264.7203550465856        271.84689507886736       277.105210887149         277.23107126665144       271.7705656807184        271.75140173051324       270.6448082440809        270.47722041161296       277.13178864734533       277.13295899493306       277.40108089971653       261.55526894472433       261.15956698538474       277.2516934634629        264.7366339467698        260.77158408389096       260.789047967123         261.5756768343453        261.4303615783569        259.95347360880874       259.58564736414604       260.2442583225815        260.09492549197546       259.25556046246624       259.1104320651754        279.0941941894254        258.56723659824456       258.4388782377437        255.21867099731537       255.11415624806997       263.8939404124884        263.84916391675847       262.453178822709         275.4582848292542
0.5                      269.2091176643551        268.89876021030966       265.28203285450564       264.9511866313741        271.84621392269656       275.4423953986914        275.4059832335563        271.7663906024772        271.7380130647841        270.12127684591974       269.8984902598605        275.4697036859712        275.4611453803449        275.57719919209285       261.7601407529932        261.0822244360625        275.4229151487069        262.86632697640215       260.1537376005313        260.1632805241882        261.41060347144423       261.15446991188855       258.9250612714979        258.2936489045748        259.22254918438733       258.95741517091034       257.486420238804         257.2349583284014        280.1531581400143        258.0181743349722        257.8521436722342        251.45152347999996       251.26934038002426       265.2232556109244        265.1789866379828        263.48057029877043       275.9788951375426
0.75                     268.9517071262926        268.6954986721326        265.3867441101585        265.06785408223163       271.4403316786715        274.1397684106318        274.02013858687206       271.35111570574446       271.3320875283369        269.3437379351705        269.1821642132161        274.1598157501836        274.1492339241975        274.18323987252967       261.4835367805264        260.7667572072029        274.02987622755427       261.6987925380944        259.41483199857504       259.27750754309903       260.8006037163951        260.5559930861349        257.78370812818883       257.1246756175921        258.04389553106694       257.8014174831271        255.77446316665336       255.5483508929993        280.4500430923091        257.3380184385873        257.25942536671545       248.65195475853946       248.49636260995632       266.0375694265469        265.9995716610974        264.12379535912436       276.3885158406198
1                        268.4268462549897        268.29117551312214       265.29462774856603       265.0615560070627        270.8488172812279        273.0062648938252        272.8427938737639        270.74914348553995       270.7494664242099        268.51974353459406       268.478484842475         273.0155579318688        273.0078912746582        272.99361899920166       260.9907261378889        260.3707302713083        272.8452333606394        260.81729370373756       258.6795544307395        258.30755002573494       260.0079997034465        259.8485366425112        256.6181074609384        256.06622068827045       256.8292536750113        256.6932647201203        254.14514945149233       254.023268423436         280.47204336802486       256.5775219037388        256.6580733335829        246.38311480840508       246.3175149611364        266.5775462284998        266.5498337825532        264.54990084317575       276.74354967263514
1.25                     267.89311377666047       267.890738998621         265.15271381558284       265.01968207498254       270.2546835781462        271.92977265561115       271.727901313485         270.1449626851177        270.1676939104501        267.7296795861507        267.82495436816873       271.9279875613324        271.9259813147549        271.86608773778386       260.49473245159254       260.01849601037964       271.72529152682375       260.0015822451293        258.0143476762083        257.3828783915257        259.2538342213518        259.206140292042         255.51858430486968       255.117250530595         255.69525505790466       255.69706013131554       252.63629762890935       252.6470180308193        280.4765519773096        255.85088088043238       256.111657451964         244.3201284860844        244.36804735522503       267.0399862753225        267.02323171216784       264.91431131762783       277.0749782131904
1.5                      267.3163172806147        267.509168798589         264.76907552643115       264.80511797214035       269.6478354002162        271.13002111432854       270.91616021245227       269.5300611283167        269.5900405726746        267.1043187842131        267.41485363079016       271.1155859677943        271.13256591867093       271.03994811143207       259.98328782747706       259.8788375009471        270.9194175307073        259.505211882939         257.6892744213471        256.6780307496003        258.68625472855746       258.8795547068542        254.739810603072         254.69973472294834       254.95270996895042       255.2442675920853        251.71218463219853       251.99321929543072       280.39615359839655       255.28857923155235       255.8319093110436        243.25638438097556       243.53202246632802       267.126052099672         267.12352013530784       264.97924561166155       277.2918233770663
1.75                     266.7395207845689        267.127598598557         264.38543723727946       264.59055386929816       269.0409872222862        270.33026957304594       270.1044191114195        268.9151595715156        269.01238723489905       266.47895798227546       267.00475289341153       270.3031843742563        270.339150522587         270.2138084850802        259.47184320336163       259.7391789915145        270.11354353459086       259.00884152074866       257.3642011664859        255.97318310767486       258.1186752357632        258.55296912166654       253.9610369012743        254.28221891530168       254.2101648799962        254.79147505285502       250.78807163548768       251.33942056004216       280.31575521948344       254.7262775826723        255.55216117012324       242.19264027586675       242.69599757743097       267.21211792402147       267.22380855844784       265.0441799056953        277.5086685409422
2                        266.1627242885232        266.746028398525         264.0017989481278        264.3759897664559        268.4341390443562        269.5305180317634        269.29267801038674       268.3002580147145        268.4347338971236        265.85359718033783       266.5946521560329        269.49078278071823       269.545735126503         269.3876688587284        258.96039857924615       259.5995204820819        269.3076695384744        258.51247115855824       257.03912791162475       255.2683354657494        257.5510957429689        258.22638353647875       253.1822631994766        253.86470310765503       253.46761979104195       254.33868251362478       249.8639586387768        250.68562182465357       280.23535684057043       254.16397593379224       255.27241302920288       241.12889617075794       241.85997268853396       267.29818374837095       267.32409698158784       265.109114199729         277.7255137048181
2.25                     265.58592779247743       266.364458198493         263.6181606589762        264.16142566361367       267.82729086642615       268.7307664904808        268.48093690935394       267.68535645791343       267.85708055934805       265.2282363784002        266.1845514186543        268.6783811871802        268.752319730419         268.56152923237653       258.4489539551307        259.4598619726494        268.50179554235797       258.01610079636794       256.7140546567636        254.56348782382398       256.9835162501747        257.899797951291         252.40348949767892       253.44718730000838       252.72507470208768       253.8858899743945        248.93984564206596       250.03182308926495       280.1549584616574        253.6016742849122        254.9926648882825        240.06515206564913       241.0239477996369        267.38424957272036       267.42438540472784       265.17404849376265       277.94235886869404
2.5                      265.02295361462274       265.9904684881201        263.20185992288884       263.9129043699552        267.2579219680505        267.9979917206833        267.7382122194658        267.1114127977166        267.3186300635566        264.6598977881633        265.82206822419465       267.9350743100742        268.0291748664271        267.80654997303          257.9515253784022        259.3542988616462        267.76825430009507       257.55385875522796       256.4429197552852        253.9123076840649        256.4905198274933        257.6554182991143        251.70510418855605       253.1263115438146        252.09235541335192       253.55288356178514       248.16204747255628       249.53249792798343       280.0806172955048        253.09805057991753       254.77438907053323       239.18704365145678       240.38035300641542       267.3995409029151        267.4535593861238        265.1776520874898        278.13018251800355
2.75                     264.48661600773437       265.63108690989765       262.72261637404705       263.5989452018034        266.7607782547568        267.3942858597395        267.1284869662767        266.6163978602164        266.855726177831         264.20144497595714       265.55134735524825       267.3249177694161        267.4414462176482        267.1887017028211        257.48110670230886       259.3144399608437        267.1741033181756        257.157384368475         256.27572782182574       253.36454856314467       256.1412501814985        257.56945521196127       251.1616329174942        252.99166790535403       251.67127809964546       253.45071336770306       247.66620817740335       249.330854115245         280.017948800703         252.7075033643257        254.67457470591884       238.66666815779266       240.10758442545765       267.27844484786135       267.3456908795626        265.06306714521713       278.2620796851117
3                        263.95027840084595       265.27170533167515       262.2433728252052        263.28498603365165       266.26363454146315       266.79057999879575       266.5187617130876        266.1213829227161        266.39282229210545       263.7429921637511        265.2806264863019        266.71476122875805       266.85371756886934       266.5708534326123        257.0106880262155        259.27458106004116       266.5799523362561        256.760909981722         256.10853588836625       252.81678944222438       255.79198053550368       257.48349212480827       250.61816164643227       252.8570242668935        251.25020078593894       253.34854317362098       247.1703688822504        249.12921030250652       279.9552803059012        252.31695614873388       254.5747603413044        238.14629266412854       239.83481584449984       267.15734879280757       267.23782237300145       264.94848220294443       278.3939768522198
3.25                     263.4139407939576        264.9123237534527        261.7641292763634        262.9710268654999        265.7664908281695        266.186874137852         265.9090364598985        265.62636798521595       265.92991840637984       263.28453935154505       265.0099056173555        266.10460468810004       266.2659889200904        265.95300516240343       256.5402693501222        259.2347221592387        265.98580135433673       256.364435594969         255.9413439549068        252.26903032130414       255.44271088950887       257.3975290376552        250.0746903753704        252.72238062843294       250.82912347223245       253.24637297953888       246.67452958709742       248.92756648976805       279.89261181109947       251.92640893314206       254.47494597669          237.62591717046442       239.5620472635421        267.0362527377538        267.1299538664403        264.83389726067173       278.52587401932794
3.5                      262.8776031870692        264.55294217523027       261.2848857275216        262.65706769734817       265.2693471148758        265.5831682769082        265.29931120670943       265.1313530477157        265.46701452065423       262.82608653933903       264.7391847484092        265.494448147442         265.6782602713116        265.33515689219456       256.06985067402877       259.1948632584362        265.39165037241725       255.96796120821597       255.77415202144738       251.7212712003839        255.09344124351406       257.31156595050226       249.5312191043085        252.58773698997243       250.40804615852596       253.14420278545683       246.1786902919445        248.72592267702962       279.8299433162977        251.5358617175503        254.37513161207562       237.1055416768003        239.28927868258432       266.9151566827           267.02208535987916       264.71931231839903       278.65777118643604
3.75                     262.33730228324674       264.16853823261346       260.7533094738723        262.2725519110012        264.8054639159875        265.0430089978006        264.7551848567777        264.67117431952965       265.0368468036856        262.3961335170381        264.4818457776104        264.95070582400746       265.156684997444         264.78599714060897       255.58105514890505       259.1099060329393        264.8658136090344        255.53621495472382       255.57626406671594       251.1909954645522        254.7926170217683        257.2636155202358        249.03676297002218       252.469988555656         250.06582201525129       253.10422367371157       245.80850725872          248.6296079703315        279.77317506512924       251.22434548293913       254.30479927165004       236.9234275223401        239.18332503917335       266.6963955502037        266.81521449367034       264.5097383950393        278.7567080642837
4                        261.7932307787041        263.7603285174851        260.171944940989         261.82090998199794       264.37322409927805       264.5633066542261        264.27346797956164       264.2441380578597        264.6378236170277        261.99329461970217       264.2372380746508        264.47014864654216       264.69804670943387       264.302186259447         255.0747762604748        258.98204317145206       264.4049696145264        255.07091175903315       255.34917253681903       250.6773530684637        254.53788279898188       257.2518295646025        248.58893884769557       252.36831387760233       249.79861718699917       253.12341190263086       245.55787105724042       248.6335012494863        279.7220201866815        250.98801772871838       254.26251553406465       237.0631283795875        239.2360757608724        266.3847178339956        266.5141547804474        264.20979387203414       278.8242871880966
4.25                     261.24915927416146       263.3521188023568        259.59058040810567       261.3692680529946        263.94098428256854       264.0836043106516        263.79175110234553       263.8171017961897        264.2388004303698        261.59045572236624       263.9926303716912        263.98959146907686       264.2394084214237        263.818375378285         254.56849737204456       258.85418030996476       263.9441256200184        254.6056085633425        255.12208100692206       250.16371067237517       254.28314857619546       257.2400436089692        248.141114725369         252.26663919954865       249.53141235874702       253.1426001315502        245.30723485576092       248.63739452864112       279.6708653082337        250.7516899744976        254.22023179647923       237.20282923683496       239.28882648257144       266.0730401177875        266.2130950672244        263.9098493490291        278.8918663119095
4.5                      260.7050877696189        262.9439090872285        259.00921587522237       260.91762612399134       263.508744465859         263.60390196707704       263.31003422512947       263.3900655345198        263.83977724371186       261.1876168250302        263.74802266873155       263.5090342916115        263.7807701334135        263.33456449712304       254.06221848361432       258.7263174484775        263.48328162551036       254.1403053676519        254.89498947702518       249.65006827628667       254.02841435340898       257.2282576533359        247.6932906030424        252.164964521495         249.26420753049493       253.1617883604695        245.05659865428137       248.64128780779595       279.6197104297859        250.5153622202768        254.17794805889383       237.34253009408235       239.3415772042705        265.7613624015794        265.91203535400143       263.60990482602404       278.95944543572233
4.75                     260.1610162650762        262.53569937210017       258.42785134233907       260.46598419498804       263.07650464914957       263.1241996235026        262.8283173479134        262.9630292728498        263.44075405705394       260.7847779276943        263.503414965772         263.0284771141462        263.32213184540336       262.850753615961         253.5559395951841        258.5984545869903        263.02243763100233       253.67500217196127       254.66789794712827       249.13642588019815       253.77368013062255       257.21647169770256       247.24546648071583       252.06328984344128       248.99700270224278       253.18097658938882       244.80596245280185       248.64518108695074       279.56855555133814       250.27903446605606       254.1356643213084        237.48223095132977       239.39432792596952       265.44968468537127       265.61097564077846       263.30996030301895       279.0270245595352
5                        259.61694476053356       262.1274896569719        257.84648680945577       260.01434226598474       262.64426483244006       262.64449727992803       262.3466004706973        262.53599301117987       263.041730870396         260.3819390303583        263.25880726281235       262.5479199366809        262.8634935573932        262.366942734799         253.04966070675385       258.47059172550297       262.56159363649437       253.2096989762706        254.4408064172313        248.62278348410965       253.51894590783613       257.2046857420692        246.79764235838925       251.9616151653876        248.7297978739907        253.20016481830814       244.55532625132233       248.6490743661056        279.5174006728904        250.04270671183528       254.09338058372302       237.6219318085772        239.44707864766852       265.1380069691632        265.3099159275555        263.01001578001393       279.0946036833481
5.25                     259.0605071160931        261.66577834235306       257.2271430775198        259.4765013827284        262.21995829285265       262.19106006647155       261.89247050685907       262.1226109682109        262.65158880702444       259.9971389494379        263.00843094784176       262.0987878599777        262.4338470913307        261.9158760746103        252.53727955181674       258.2446078354073        262.1310625453059        252.67423410745891       254.1238277474443        248.13640993877175       253.2795092315847        257.19421852695325       246.40079547226236       251.80742862837013       248.49290494295636       253.2214589639928        244.3674275522589        248.6932548008295        279.48388883857666       250.00015267354524       254.06105866003242       237.8947111443913        239.56789742256686       264.7362682334623        264.9145644183521        262.6184116798935        279.14653191538076
5.5                      258.49230457571343       261.15316668568835       256.57166670205874       258.85665255396617       261.80319931301864       261.76261096775596       261.4645861756805        261.72221927335994       262.26989606511864       259.62950063441605       262.75256649181966       261.6795529899535        262.03178285958865       261.4959616054485        252.01909282367404       257.9252735788621        261.72937053859465       252.072018838764         253.72133226676732       247.67597942772866       253.05462633238878       257.185005934952         246.05244729989047       251.60328336847002       248.2848501392143        253.24475663638867       244.23921604689616       248.77576362233165       279.46716224039994       250.14195103806787       254.03821420504318       238.29409865907306       239.75347476960584       264.2488472613264        264.42950559734425       262.13960450787624       279.1835702048224
5.75                     257.9241020353338        260.64055502902363       255.9161903265977        258.2368037252041        261.3864403331847        261.33416186904043       261.0367018445019        261.321827578509         261.8882033232128        259.2618623193942        262.49670203579757       261.2603181199293        261.6297186278466        261.0760471362866        251.50090609553135       257.60593932231694       261.3276785318834        251.46980357006905       253.31883678609032       247.21554891668555       252.82974343319287       257.1757933429509        245.7040991275186        251.3991381085699        248.07679533547227       253.2680543087846        244.11100454153345       248.8582724438338        279.4504356422232        250.2837494025905        254.01536975005394       238.69348617375488       239.93905211664486       263.7614262891905        263.94444677633635       261.660797335859         279.22060849426407
6                        257.35589949495414       260.12794337235886       255.2607139511366        257.6169548964419        260.9696813533507        260.9057127703249        260.6088175133233        260.9214358836581        261.506510581307         258.89422400437235       262.2408375797755        260.8410832499051        261.22765439610464       260.6561326671247        250.98271936738865       257.28660506577177       260.92598652517216       250.86758830137413       252.91634130541334       246.75511840564243       252.60486053399694       257.16658075094966       245.35575095514668       251.19499284866978       247.86874053173023       253.2913519811805        243.98279303617076       248.94078126533597       279.4337090440465        250.42554776711313       253.9925252950647        239.09287368843667       240.12462946368385       263.2740053170547        263.45938795532845       261.18199016384176       279.25764678370575
6.25                     256.78769695457447       259.61533171569414       254.60523757567552       256.9971060676798        260.5529223735167        260.4772636716093        260.1809331821447        260.52104418880714       261.1248178394012        258.52658568935055       261.9849731237534        260.42184837988094       260.82559016436255       260.2362181979629        250.46453263924596       256.9672708092266        260.5242945184609        250.26537303267918       252.51384582473634       246.29468789459932       252.379977634801         257.15736815894854       245.0074027827748        250.99084758876964       247.66068572798815       253.31464965357642       243.85458153080805       249.02329008683813       279.4169824458698        250.5673461316358        253.96968084007548       239.4922612031185        240.31020681072286       262.78658434491877       262.9743291343206        260.7031829918246        279.29468507314743
6.5                      256.2194944141948        259.1027200590294        253.94976120021445       256.3772572389176        260.13616339368275       260.0488145728938        259.75304885096614       260.12065249395624       260.74312509749535       258.1589473743287        261.7291086677313        260.0026135098567        260.4235259326206        259.816303728801         249.94634591110326       256.64793655268136       260.1226025117497        249.6631577639843        252.11135034405936       245.83425738355623       252.15509473560508       257.1481555669473        244.6590546104029        250.7867023288695        247.4526309242461        253.33794732597235       243.7263700254453        249.1057989083403        279.4002558476931        250.70914449615842       253.94683638508624       239.8916487178003        240.49578415776185       262.29916337278286       262.4892703133127        260.22437581980734       279.3317233625891
6.75                     255.37996879470032       258.10583094848465       253.06108684188922       255.36559368294908       259.38251864628785       259.40323244688125       259.119312926736         259.37079350803907       259.9638523305975        257.3236778781438        260.7184358739227        259.3624411311323        259.7750402953918        259.1868265415887        249.06809952292073       255.48832810637373       259.4867788701106        248.67617518108156       250.93110272420114       244.94081002435874       251.25329010367622       256.09667870382947       243.73823803736207       249.6163930811669        246.5694433314872        252.28172340630837       242.89208702128613       248.10310627330375       279.1373279977584        250.11751749738585       253.0991869329014        239.16131114775538       239.71007010424051       261.609104138797         261.7868348570057        259.5114081303778        279.2288321057411
7                        254.2823118732741        256.6482100414628        251.95055262880712       253.98116550268173       258.30836757828627       258.55107434063376       258.2897339511426        258.2884583939585        258.80632995143634       256.0435135134084        258.9896536602393        258.5120732653436        258.89211430598334       258.3579756135828        247.8472996404965        253.52929975339723       258.628207115983         247.32313274038395       249.01091741484728       243.63539917448753       249.7074757961005        254.05361264697962       242.2727865808399        247.52689491350705       245.04394802803037       250.19846442965257       241.3860618423151        246.067974872835         278.6401692454587        248.82812440914233       251.4668346516741        237.356175930946         238.00028901373966       260.7262589519054        260.87759165672657       258.57566485024705       278.99281470245427
7.25                     253.18465495184788       255.19058913444096       250.84001841572498       252.59673732241444       257.2342165102847        257.6989162343862        257.4601549755492        257.2061232798779        257.64880757227513       254.76334914867303       257.2608714465559        257.6617053995548        258.00918831657486       257.52912468557696       246.62649975807224       251.57027140042075       257.76963536185553       245.97009029968635       247.09073210549337       242.32998832461627       248.1616614885248        252.0105465901298        240.80733512431777       245.43739674584714       243.5184527245735        248.11520545299678       239.880036663344         244.0328434723662        278.143010493159         247.5387313208988        249.83448237044675       235.5510407141366        236.2905079232388        259.8434137650136        259.9683484564474        257.6399215701164        278.7567972991674