% Model:              PicC_fullinst_meshupdate.mph
% Version:            COMSOL 5.6.0.401
% Date:               Apr 25 2022, 09:50
% Table:              Table 1: Tsense - Tsense Eval
% Time (h)               Temperature (K), Point: 950Temperature (K), Point: 955Temperature (K), Point: 1264Temperature (K), Point: 1283Temperature (K), Point: 1353Temperature (K), Point: 1469Temperature (K), Point: 1480Temperature (K), Point: 1484Temperature (K), Point: 1716Temperature (K), Point: 1754Temperature (K), Point: 1825Temperature (K), Point: 1826Temperature (K), Point: 1933Temperature (K), Point: 1988Temperature (K), Point: 1989Temperature (K), Point: 2928Temperature (K), Point: 3088Temperature (K), Point: 3338Temperature (K), Point: 3339Temperature (K), Point: 3464Temperature (K), Point: 3467Temperature (K), Point: 3567Temperature (K), Point: 3653Temperature (K), Point: 3719Temperature (K), Point: 3724Temperature (K), Point: 3732Temperature (K), Point: 3749Temperature (K), Point: 3872Temperature (K), Point: 3880Temperature (K), Point: 3996Temperature (K), Point: 4004Temperature (K), Point: 4028Temperature (K), Point: 4163Temperature (K), Point: 4202Temperature (K), Point: 4215Temperature (K), Point: 4222Temperature (K), Point: 4341Temperature (K), Point: 4349
0                        273.999284302844         273.99904352296994       273.9994180400946        273.999373212363         273.99991760107997       273.99990839451834       273.99994276261066       273.9998990753501        260.0013751785332        280.0000096890563        280.0000078748722        280.00000541114133       280.0000164995191        280.0000149646645        280.000017137475         280.000008087918         280.0024308293961        274.0007183511296        274.00071337104714       280.0019461046625        260.0017270128898        260.0012602849834        260.00125568217885       273.99888237095695       260.00250888129347       260.0025176280577        260.00104867911097       260.00175296240457       260.00175440058723       260.0012495893613        260.00125331147547       274.00288446380955       259.9983605413539        259.9999793481089        249.9993492377696        249.99932202839568       250.00097511771293       250.00098735624064
1.5                      266.1800868855713        266.2950584636018        269.91040511353316       270.0767868130792        271.6940063584464        273.17302572523556       273.1369741034416        272.9113290688717        263.0333136664989        279.79869866601894       279.74517823647125       278.5512272804117        279.87216207005514       279.83428051361057       279.831820846679         279.694789653053         277.30306814689607       275.18846532424595       275.23749916267474       276.0880261868358        261.8622736615432        259.5794089203775        255.89614919531522       253.87336483561933       256.46069654514923       256.5409533520154        250.03156889765214       251.6916674524157        251.74610524679667       247.05283325508523       247.05437757040318       265.18115317092776       226.88776061893861       259.2743595119159        221.16139809205623       221.2245096668815        226.37385151228165       226.41438325096348
3                        262.09040168998825       262.8398024113674        266.1143617602523        266.97597120888446       269.0074434068423        272.01371061973657       272.05525530151124       271.4808491126307        261.4230660000049        279.4551189492108        279.3226690386891        277.0334170583593        279.6527341339626        279.56020449753623       279.5645595255215        279.21555678376706       274.1637903946057        271.0140767704458        271.3793089659649        272.25320210670037       260.60199240053583       257.51852066970054       251.22991492268218       245.10616367621628       251.25716521387233       251.59748909462508       243.04321893874712       245.10954528628702       245.4542509537703        238.66617539119173       239.07390820998998       255.22321931673017       209.30852214445594       257.54585363244905       206.96702587357558       207.55069360960417       215.10998548635297       215.16077452660605
4.5                      258.20215447700605       259.54728934901976       261.63384273065043       263.4913646935265        265.8139500786559        270.49535679366437       270.7275211010181        269.73812853067693       257.583201340135         279.08375514685395       278.86671291142494       275.5650884087829        279.4136546778516        279.260702888046         279.28029060064677       278.6889481237232        272.26667117486693       268.796999228313         269.43715608484473       270.04121049334816       257.4959434668801        254.20022165030613       246.31904279468625       239.04427552262797       248.66340131763718       249.37804376786573       237.73126193583397       241.40253127184735       242.1062523788312        233.71548176920194       234.70058877775529       247.3026924004821        197.93595463686722       255.64813671585          197.82528087243196       198.90238835640187       208.8568760086704        208.96576083666605
6                        253.71589056719526       255.35284752252647       256.1601317442111        258.8801623348958        261.94734456969405       268.61739771709813       269.08111090282773       267.6666508902132        251.99237671371895       278.70448921607215       278.4027613419196        274.14999073570556       279.1672323872055        278.95262701250687       278.9929796327701        278.1450296773168        270.9349214495665        267.75425246847453       268.7513753182365        268.62169050373586       252.47354268398402       249.2790069613703        240.7011253952419        233.23683993943362       247.15924130369186       249.18198047385152       232.31411391091493       238.97826937819718       241.1530084315023        230.52378525808638       233.27612945824464       240.80231316096845       190.00651018769378       253.74661947664802       191.46131503294157       192.72202816254693       219.48691296297446       206.80052028263802
7.5                      247.946961270936         248.52172787976573       249.9158198271086        252.1883956699118        257.08978124607404       266.3409856544024        266.86679881024503       265.1080399984123        244.21905317072745       278.2836558921019        277.8961440503328        272.70941774003603       278.88475230695          278.61091972158255       278.6585736277144        277.55423428659986       269.009599417332         264.1189035804394        264.5429413234275        266.28783017804733       243.26413169052068       239.68185161505892       232.09301597654692       223.16538556289115       241.26846186085785       242.6260363714143        221.02371864483783       232.5252256943067        233.96788022963744       223.97328678773118       225.98496416634507       234.187733004911         182.13045048329792       251.60098461277443       182.76702998330666       183.2242432076258        207.22693211023937       200.3817998881664
9                        242.86514246675878       243.05872008165346       244.18445633634292       245.9458723052244        252.2314408667638        263.8539497513056        264.3823828236532        262.32029712574075       237.59386644460315       277.82953410035833       277.35581192905823       271.26906098701244       278.5743800191267        278.2424463058772        278.2919703565629        276.92490001281675       266.97930779954123       260.94033751308103       261.1049119333525        263.8766575362283        235.96779383114014       232.15506202345728       224.64408073161692       214.68940786308343       236.04533890472854       236.896653976873         211.93754521928514       226.71178975587426       227.56317396361212       218.07172055506953       219.40287960162587       227.98126998428404       175.22511327184043       249.356929633321         175.1241043406756        175.30450043139194       198.04805662091613       194.6003136211795
10.5                     238.65916515767697       238.73373139264697       239.09011857764725       240.4519543055238        247.57662590644236       261.25749866887287       261.76312247891616       259.4314786205964        232.1934745708941        277.35087405822037       276.79101110671013       269.8440998112875        278.24290696485775       277.8536058752079        277.90297253465405       276.2660278945966        265.0610716567843        258.4638947784239        258.53410019185924       261.6735119327646        230.21729292177346       226.27824060315416       218.594386284224         208.02732720330005       231.8977612920801        232.47353922779283       204.86049786214753       221.97135437293923       222.46553474579858       213.19461496094692       214.0711473137596        222.31333951728502       169.23434253814332       247.07944477238556       168.75275980925926       168.82970999786087       191.61635998828456       189.82637191623257
12                       235.19684520954462       235.2326129813285        234.5919775764801        235.66746332623924       243.1896805042744        258.6227008447647        259.0950760847823        256.52427701864          227.75273390529085       276.85442776431137       276.20899379802626       268.44258121415197       277.8951345845749        277.4491688963888        277.4976051453054        275.5851565089329        263.311817462573         256.55556314156956       256.5921500372668        259.7221669082502        225.56266079021955       221.56718648815647       213.69726237418368       202.81072505244936       228.6641768513419        229.10045275407342       199.33290641702786       218.20064726975136       218.49338912179797       209.26732746447868       209.86477961531625       217.20883608753024       164.03332656249896       244.8101496466332        163.47913401721763       163.5230382795514        186.90114191743479       185.95941791981784
13.5                     232.30353242724743       232.32091963661105       230.60681355918567       231.47657012643813       239.07854254457976       255.99937071731176       256.4348672257244        253.65147042203031       224.02144142040942       276.34539218644625       275.6153460130814        267.06781359765614       277.53476854121317       277.0328867098942        277.0800242809747        274.88859347389916       261.71918895512977       255.04251374693405       255.06416555932242       257.98191655111225       221.67566092156812       217.65296018005532       209.64476811757308       198.60691462937166       226.07873869849396       226.4426035745022        194.8739637046508        215.15715798157936       215.33254957657832       206.07438557682062       206.49535272470652       212.61754670571827       159.47323394197488       242.57292099601625       159.05475790791783       159.082458132182         183.28754314416037       182.80131874682743
15                       229.86554951217462       229.8735581029496        227.07210688643676       227.79383798261406       235.24154916910845       253.4199879597249        253.81822661060679       250.84588076673754       220.8552098138178        275.8271597316419        275.01375105473915       265.72190089842144       277.1642019994455        276.60719465016996       276.6528171539585        274.18069988680634       260.26437964631145       253.8132990242439        253.82782754034903       256.41534715446613       218.39141184243124       214.3567984566814        206.24968603157595       195.1600078748482        223.97953972812115       224.30594187231625       191.21892987645978       212.6798992845754        212.78654279402824       203.46506431903026       203.7726395301828        208.4900485004617        155.45193092493804       240.38213213033822       155.30847596142303       155.32612264060052       180.4511662856735        180.21181553272078
