% Model:              PicC_fullinst_center_insul.mph
% Version:            COMSOL 5.6.0.401
% Date:               Aug 21 2022, 10:42
% Table:              Table 3 - Point Evaluation 1
% Time (h)               Temperature (K), Point: 136Temperature (K), Point: 154Temperature (K), Point: 203Temperature (K), Point: 224Temperature (K), Point: 291Temperature (K), Point: 328Temperature (K), Point: 365Temperature (K), Point: 395Temperature (K), Point: 458Temperature (K), Point: 478Temperature (K), Point: 518Temperature (K), Point: 527Temperature (K), Point: 629Temperature (K), Point: 639Temperature (K), Point: 643Temperature (K), Point: 651Temperature (K), Point: 716Temperature (K), Point: 730Temperature (K), Point: 732Temperature (K), Point: 773Temperature (K), Point: 803Temperature (K), Point: 833Temperature (K), Point: 850Temperature (K), Point: 884Temperature (K), Point: 913Temperature (K), Point: 939Temperature (K), Point: 964Temperature (K), Point: 997Temperature (K), Point: 1168Temperature (K), Point: 1257Temperature (K), Point: 1303Temperature (K), Point: 1435Temperature (K), Point: 1452Temperature (K), Point: 1889Temperature (K), Point: 1931Temperature (K), Point: 2325Temperature (K), Point: 2526Temperature (K), Point: 2658Temperature (K), Point: 2691Temperature (K), Point: 2700Temperature (K), Point: 2806
0                        274.6967145246462        275.88951620655166       273.6523631320208        274.07442744342325       268.70918294536875       264.86372075599127       264.5676351672602        263.7472208495766        259.21269044032204       257.6405700770223        264.8320508223725        251.75048543058972       242.89449246318216       264.65526946543656       275.8148433317885        274.55653763227207       235.49870398515165       272.8041614086963        273.07456401658635       265.05239847523217       222.40698477227923       261.2562443186578        260.62256472016423       255.81380742114033       251.97069611921492       248.88455904421795       239.35023643531153       233.28495316055995       273.38527944403614       273.18117947940885       273.6554446443415        276.03226779115533       277.2890563305305        276.94598973803875       276.1050780403376        275.8981675218087        277.30644733738353       278.99765056118923       278.99903675089405       278.99870701618335       264.29686543178417
0.1                      269.43238100033693       269.3167741424394        270.10213702879855       269.68784946977587       261.9142481817924        263.80977827371265       258.5999890134121        257.4762600502059        252.75946907722334       247.3046955898757        263.5549624053865        245.22382328615387       231.98631761976847       260.2605399464151        269.1409095595755        269.2797044704629        229.122171683889         269.53460782000815       269.86214182004          259.64603510175266       222.35206560732053       256.64207663665854       255.07152132129124       250.69360752385302       244.0646313195529        243.097838828907         230.20799869854824       227.7872551848865        267.5631863596661        267.6693306784865        266.26624076853113       270.69848278380107       273.87069151416006       273.780531934246         270.69728132699487       270.72540365975004       273.91282475769634       276.605319806253         277.6492784841158        277.2109858002924        261.83159104689884
0.2                      268.09743450419677       267.98923454525766       269.05489337962734       268.65064159247254       259.7795693676651        263.1093856019807        256.6284681948851        254.61294230767658       250.7147719870539        244.05926042416485       262.83334959754984       242.67711022522437       229.02396239444622       258.1702688002228        267.82285644658555       267.953457807727         227.39496791958229       268.50902885035305       268.82560375117936       257.74650601092765       222.17032633411162       255.04034407637482       252.85381784420557       248.99950018074378       241.40424447943093       240.8732958712605        227.77025316889709       226.26836476687822       266.553616118556         266.62203239305967       264.9752494169901        270.0445058293977        272.9947886570473        272.90984049531124       270.02000492876124       270.07292151511155       273.03646583657934       275.67524475233824       277.1402091921542        276.5614946022732        260.7693992127317
0.30000000000000004      267.10436517170024       266.99957532624944       268.1465514753691        267.75079828021336       258.0350757118402        262.34676478860996       255.04463731052843       252.20252285614285       248.97461401087895       241.58029306724333       262.07722513643546       240.651914164673         227.03626335272878       256.2121610322009        266.84507911978585       266.97126133979424       226.06347038914703       267.5994687888626        267.9077786787063        256.1978708383211        221.88505875451227       253.7107263288585        250.94931663742068       247.5484422817481        239.34623913282226       239.0977471008871        226.1427982346758        225.08437900420896       265.62268208398564       265.6749367431324        263.8651197469327        269.5252713888122        272.2489796373782        272.16771295872707       269.4880899556811        269.5517295248105        272.28859431492225       274.95885772919644       276.75717880498973       276.0506515183023        259.7722579436695
0.4                      266.2306223967411        266.12669276900124       267.278047078247         266.8889477459953        256.50502783115934       261.5514168878136        253.67058242866014       250.11907084490065       247.41363271833          239.5439541090332        261.29943489345396       238.92887929559606       225.51440250495486       254.36346878025063       265.98349517997366       266.10801763917476       224.91191640161733       266.72364147398565       267.0253332483568        254.84066793342834       221.51309370865545       252.52639728351988       249.24719474737535       246.23355573289527       237.6323672659998        237.57483436759043       224.89247948353434       224.0503402538375        264.72271498649764       264.7683086857809        262.84157008633366       269.04794243402745       271.5730219932788        271.4949039010435        269.0038388267251        269.0722634933745        271.61013064501407       274.3620164450946        276.4385128059369        275.6142980997735        258.80455415983005
0.5                      265.3982026575696        265.29442495994545       266.42021301961114       266.03672319187814       255.10946464801557       260.74098269671657       252.42434159849174       248.27508770663434       245.9721653167729        237.7885804722704        260.50902854206174       237.39946439701808       224.24390831683016       252.61852049513854       265.1609285907774        265.2847008340738        223.8549433962952        265.85760700171824       266.15372133357687       253.5994057090035        221.0725781580784        251.42820389105196       247.68823743340852       245.004336632116         236.13388357978815       236.21021994203278       223.8362034232682        223.09396492586677       263.836609448842         263.87947289081046       261.8668456153156        268.5874713976701        270.9407931629682        270.86558783724394       268.5394873932411        268.6099621571577        270.9753809782262        273.84019708970675       276.1569838341783        275.22437026698134       257.8551633496822
0.6000000000000001       264.5782847090338        264.4744977597841        265.56476001996856       265.18625336636774       253.7925361877489        259.92490680833345       251.25051830392695       246.58082979505218       244.60364751841496       236.19529017626593       259.712169465697         235.9832771153254        223.10377141779418       250.95257188965334       264.34925095136373       264.4725660577409        222.84778579639206       264.99434701894404       265.2855303017282        252.4234169221806        220.5878705149089        250.3778284017646        246.21896568250372       243.82513641129674       234.7580586834602        234.93698025441915       222.8754443268515        222.17810910083722       262.95693726833457       262.99856759681865       260.91902800325016       268.1347323335677        270.3346398017202        270.2622106976665        268.0842857570861        268.1556166427667        270.36680394330983       273.3617244025388        275.89553870674666       274.8613245234397        256.91734398961984
0.7000000000000002       263.7626144671726        263.658795019798         264.7099409863157        264.33588434899156       252.54010430503672       259.10646287084495       250.13427243715432       245.01239745694178       243.29720352089356       234.7312600189489        258.9108412909052        234.658926696551         222.06019219719857       249.36418928108733       263.54031983858414       263.66331041098033       221.87958761017865       264.1324748908483        264.41928543252686       251.29914610922808       220.0658352348335        249.3651095256731        244.82649900602058       242.68721032579535       233.47896412572425       233.73728803228457       221.98182959769014       221.29374420368742       262.082261978947         262.12342611008285       259.9927709487661        267.68770949365137       269.75057479316706       269.68078661696524       267.63569739970313       267.70716699215467       269.78045352562657       272.9178925331434        275.6492019348961        274.5197940865756        255.99012887160384
0.8                      262.9468855540799        262.8430826677967        263.85549490037397       263.4853937061422        251.3473914593101        258.28783217647884       249.06959296195126       243.56065267511215       242.05066220699595       233.38188561714534       258.1063073119244        233.41797446700932       221.09680984029993       247.85873861719475       262.72983491339795       262.8525482647325        220.94706241207075       263.27195854641036       263.5549240065937        250.22115990814893       219.50991226168915       248.38613658265865       243.5076251364107        241.58828397145248       232.28475542854923       232.6040243672486        221.14081964100964       220.43801367474506       261.21275565363277       261.2538161241512        259.08639061647773       267.2458175621473        269.18768325984894       269.12037634669576       267.19283816840044       267.2640033211966        269.21544680687157       272.5044962942242        275.4152259728477        274.19714328065095       255.07430707858853
0.9                      262.1288080816588        262.0251090896622        263.0020607726906        262.635499641688         250.20754802846253       257.4708270689599        248.04899167302          242.21024246594797       240.85981055987304       232.1280520103849        257.3000305887313        232.24885688124604       220.19594585893992       246.43595160773722       261.915648136923         262.03807315989525       220.04680071788067       262.4135056864733        262.69308156507685       249.1828467190335        218.9261932440344        247.4364131220917        242.25579392544435       240.52528873650095       231.16061130321003       231.52779820595742       220.3381509790008        219.6079429685552        260.34907675822325       260.3901032387273        258.19786878129884       266.8085757467005        268.64419326189056       268.57918744102267       266.75497038947606       266.8256169212585        268.67002279348304       272.11574112813213       275.19031072993187       273.889663854583         254.17054660519346
1                        261.30838736045536       261.20488268951163       262.15096158139784       261.787632243451         249.1127491293988        256.65663436208104       247.0648420297262        240.94267138191472       239.71897405897369       230.94972076417565       256.49349568841785       231.13899756465048       219.34143374161812       245.08948596161878       261.0980224868168        261.2201224276773        219.17546695390382       261.55835210231527       261.8348908465057        248.17757014767147       218.3222299079832        246.5116278213114        241.06222692302177       239.49483757500136       230.09158394791737       230.49864272321943       219.56219776741034       218.80061520789462       259.4921291399334        259.5330519573957        257.3250983662447        266.37556851832915       268.1176521542328        268.0547597525588        266.32151203006623       266.3915683539085        268.1417188741096        271.74526898524397       274.9711995839581        273.593223126839         253.27922204431107
