% Model:              PicC_fullinst_stationary.mph
% Version:            COMSOL 5.6.0.401
% Date:               Jul 9 2022, 17:22
% Table:              Table 3 - Point Evaluation 1
% Time (h)               Temperature (K), Point: 478Temperature (K), Point: 483Temperature (K), Point: 597Temperature (K), Point: 598Temperature (K), Point: 636Temperature (K), Point: 637Temperature (K), Point: 642Temperature (K), Point: 644Temperature (K), Point: 713Temperature (K), Point: 734Temperature (K), Point: 737Temperature (K), Point: 776Temperature (K), Point: 777Temperature (K), Point: 803Temperature (K), Point: 805Temperature (K), Point: 849Temperature (K), Point: 850Temperature (K), Point: 923Temperature (K), Point: 924Temperature (K), Point: 954Temperature (K), Point: 963Temperature (K), Point: 970Temperature (K), Point: 1094Temperature (K), Point: 1095Temperature (K), Point: 1256Temperature (K), Point: 1267Temperature (K), Point: 1306Temperature (K), Point: 1388Temperature (K), Point: 1455Temperature (K), Point: 1551Temperature (K), Point: 1725Temperature (K), Point: 1726Temperature (K), Point: 2267Temperature (K), Point: 2268Temperature (K), Point: 2498Temperature (K), Point: 2649Temperature (K), Point: 2815
0                        275.4886289146895        273.88407558417134       269.9315682751213        270.04277595244656       274.52626058142465       270.0486956612073        270.56402088175713       269.1147375575627        269.24808472282524       265.59601012350265       267.5510008364409        268.01361466674115       264.55401963317263       261.992112172729         259.60324136631493       263.6430121865058        260.42140747100757       258.6523855991738        256.32370109371425       238.35476266547553       254.5848213530391        253.41879969742484       244.6579073742584        243.96534773602718       277.6219449186351        277.6117208825291        275.7708999141987        269.7223039181057        277.8639518298295        275.24412843042705       269.80041348826114       269.75315667343637       275.5617038733421        274.4632140492006        273.7487622600945        273.80442808400346       279.9954491284185
0.25                     267.4361530868828        267.8089544155638        269.26302178434844       269.6364546278726        265.52215466544334       265.3570612225189        267.5050531970111        266.90995087677214       267.5041692053395        263.7757775309839        263.5633286701721        263.63647758028566       263.0028676226519        256.1314157555941        255.42878516566122       259.4342435469066        258.8649320481294        253.15605759168508       253.04741168095074       237.8214023236482        243.0634968596651        243.73294302759317       239.70702911560295       239.99269220946752       277.82890991118234       277.85318557605507       275.566834238045         269.14662575150885       273.4840764515777        273.70946768716357       269.1120402050929        269.1095767788742        272.42651955457285       272.5085161538358        272.5772255886864        272.58188054930383       276.3718227965164
0.5                      265.14482648830364       266.0700660503814        268.13210479638093       268.7428776801504        263.1681034241767        263.6653924196213        266.1325674208739        265.9298257289049        266.1266826946063        262.6345020797895        261.58617632181006       262.1969293185603        262.11502205375416       253.9424445893838        253.79068742360107       257.9263417038738        257.8601522332123        251.33367746751307       251.58344893031688       236.8638995141465        240.1469393342701        241.34026370958625       237.88886619780922       238.45994734991234       277.84484975935146       277.8753918133329        275.45433737170896       268.52691682116006       272.2318364773617        272.33473487729145       268.5143271166342        268.5123117977377        271.373210406204         271.44057339196837       271.44656641588654       271.4305095398431        274.379125913401
0.75                     263.62681113438083       264.8871261074177        267.0158216490824        267.8098409317229        261.52608697122224       262.4112576536952        264.9910798533168        265.0843595453716        264.92944215056167       261.6031114821833        260.06541704102403       261.0262362968661        261.2920757424341        252.30260888249728       252.50033877337685       256.6258473451498        256.9270905089902        249.87162807654013       250.3744464088616        235.84331838111225       238.2676358823698        239.78310690752204       236.4090791403337        237.17916243088507       277.79447733367124       277.8269942053788        275.3388981672846        267.8826534964094        271.15106493894905       271.1772184779924        267.88431330780503       267.8822165154745        270.4436648200978        270.4995654790558        270.4643530806667        270.4356828567122        272.542315034224
1                        262.4201911410771        263.92033192377875       266.040028366867         266.9703639111006        260.22456036908136       261.3856455780552        264.00687376270236       264.32281918299077       263.89634187570203       260.68484014003053       258.810197443219         260.0160353417805        260.5330059331762        250.9442361473411        251.3906687533435        255.49289719252022       256.0699474344244        248.62099204808072       249.31525532454722       234.88590570519156       236.77256392005265       238.5153699696851        235.1377047431759        236.06094613348034       277.69733339465546       277.7311181160336        275.20099414005773       267.2263582824251        270.1719656674196        270.1478273483783        267.238486732023         267.2362830722719        269.58172594486695       269.62888406326124       269.5684153353863        269.53073674263374       270.85010490468335
1.25                     261.4929115701946        263.14743352456725       265.19026296824063       266.214815610016         259.2284737021001        260.5650321405146        263.16375864441585       263.63656534474507       263.010485323547         259.8680435935828        257.7931829588942        259.14980545162206       259.83123719941705       249.8383526761957        250.44307836346164       254.5102442993348        255.28090796815425       247.56000655864227       248.3904541362521        233.98515894574027       235.62217078144783       237.50726010840316       234.05328907416165       235.088563696112         277.5582325868332        277.5926509648904        275.0429378116572        266.5592697380124        269.28407255234436       269.2333723144254        266.57847515042886       266.57614184331925       268.7804343674536        268.8212897576065        268.74987199858526       268.70641892075787       269.2876103701521
1.5                      260.5656319993121        262.37453512535575       264.34049756961423       265.4592673089314        258.23238703511873       259.7444187029739        262.32064352612946       262.95031150649936       262.124628771392         259.05124704713506       256.77616847456943       258.28357556146364       259.12946846565796       248.73246920505025       249.4954879735797        253.5275914061494        254.4918685018841        246.4990210692038        247.46565294795693       233.08441218628903       234.47177764284305       236.4991502471212        232.9688734051474        234.11618125874367       277.4191317790108        277.4541838137472        274.8848814832567        265.89218119359964       268.3961794372691        268.31891728047265       265.9184635688347        265.9160006143666        267.9791427900402        268.01369545195166       267.9313286617842        267.88210109888206       267.72511583562084
1.75                     259.6561938504949        261.61454961777906       263.50499786127943       264.715030759362         257.25635919864754       258.93828830354425       261.49076562203334       262.2724481742311        261.25297588177574       258.2460575975392        255.7775056870361        257.4307176923259        258.43591022135087       247.6461866314549        248.5623390606032        252.56067671809916       253.71264947057313       245.4554416564745        246.5542696967339        232.19551080567214       233.3430677768673        235.5080171703755        231.902547691385         233.15872763758966       277.2769441539485        277.31260733545076       274.7245962465911        265.22560118813885       267.515543025564         267.4127648528752        265.2587355836079        265.25614589228195       267.1826620720336        267.21109824811117       267.11831991885686       267.06352163020745       266.17869227122804
2                        259.05771124590984       261.0796210160472        262.9181327893685        264.16794507791093       256.6299337949373        258.3845806639947        260.89159719432394       261.74082174746746       260.628876555922         257.6431665468774        255.09869194754816       256.8109188281697        257.88545140076695       246.90152524381674       247.88088854331488       251.8680609130159        253.10458936853107       244.7152302172314        245.8767457146573        231.51306080592633       232.5922725085303        234.8127699964152        231.15150917053276       232.46146617789623       277.08095684121          277.1168388474815        274.5254636927052        264.56788443393634       266.7613826390079        266.6513173410821        264.6039503581246        264.6012846566306        266.4700291212953        266.495594803308         266.401772805714         266.3449550829345        264.9123673025331
2.25                     258.4592286413248        260.54469241431536       262.3312677174576        263.6208593964598        256.00350839122706       257.8308730244452        260.2924287666145        261.20919532070377       260.0047772300682        257.0402754962156        254.41987820806025       256.1911199640136        257.3349925801831        246.15686385617866       247.19943802602663       251.1754451079327        252.49652926648903       243.97501877798828       245.19922173258064       230.83061080618046       231.84147724019329       234.1175228224549        230.40047064968056       231.76420471820273       276.8849695284716        276.9210703595123        274.32633113881946       263.91016767973383       266.00722225245175       265.889869829289         263.9491651326413        263.94642342097933       265.7573961705569        265.78009135850476       265.6852256925712        265.6263885356616        263.6460423338381
2.5                      257.8607460367397        260.0097638125835        261.74440264554664       263.0737737150087        255.37708298751681       257.27716538489574       259.6932603389051        260.67756889394013       259.3806779042144        256.4373844455538        253.74106446857232       255.57132109985736       256.7845337595991        245.41220246854056       246.51798750873834       250.48282930284944       251.888469164447         243.23480733874513       244.52169775050402       230.14816080643465       231.09068197185627       233.42227564849455       229.64943212882832       231.06694325850927       276.6889822157331        276.7253018715431        274.1271985849337        263.25245092553126       265.25306186589563       265.1284223174959        263.29437990715803       263.2915621853281        265.0447632198185        265.0645879137016        264.9686785794283        264.9078219883886        262.37971736514316
2.75                     257.2622634321546        259.4748352108517        261.15753757363575       262.5266880335576        254.7506575838066        256.72345774534625       259.0940919111956        260.14594246717644       258.75657857836063       255.834493394892         253.0622507290844        254.95152223570122       256.2340749390153        244.6675410809024        245.8365369914501        249.79021349776622       251.28040906240494       242.494595899502         243.84417376842742       229.46571080668883       230.33988670351928       232.72702847453425       228.8983936079761        230.36968179881578       276.49299490299467       276.5295333835739        273.92806603104793       262.59473417132875       264.4989014793395        264.36697480570274       262.63959468167474       262.63670094967677       264.33213026908015       264.34908446889835       264.25213146628545       264.1892554411157        261.11339239644815
3                        256.6637808275696        258.9399066091199        260.5706725017248        261.97960235210655       254.12423218009633       256.1697501057968        258.49492348348616       259.61431604041275       258.1324792525068        255.23160234423023       252.38343698959648       254.33172337154502       255.6836161184314        243.92287969326432       245.15508647416178       249.09759769268297       250.6723489603629        241.7543844602589        243.1666497863508        228.78326080694296       229.58909143518227       232.03178130057395       228.14735508712386       229.67242033912234       276.2970075902562        276.33376489560465       273.7289334771621        261.9370174171262        263.74474109278344       263.60552729390963       261.98480945619144       261.98183971402545       263.61949731834176       263.6335810240951        263.5355843531426        263.47068889384275       259.8470674277532
3.25                     256.20581592255735       258.5154110756939        260.1149540153175        261.5447977990308        253.65075731852835       255.73484106537322       258.0233862805995        259.17826733246886       257.64428489375206       254.75297895026316       251.86587239104617       253.84484089146451       255.23357010516958       243.3579286729782        244.6228082207349        248.56435517939093       250.18408999254186       241.1880012964883        242.63480139884896       228.24869205989376       229.02399054312744       231.49523871222394       227.57746127404766       229.13278207545707       276.08383815828887       276.1206965910353        273.5165115704309        261.3002708732809        263.05487315738566       262.9134776385017        261.3494066514059        261.34639900049285       262.9525230105365        262.9650763468751        262.8678735764122        262.8023334498041        258.77228302285334
3.5                      255.77182334441108       258.1097554294729        259.6816091432279        261.129148412304         253.2033758274163        255.3201990721481        257.5736229713151        258.75852418833375       257.179275929463         254.29555562500067       251.37581690433845       253.3806339534303        254.80065452206688       242.8236362507226        244.11597876329236       248.05830175797954       249.71626910445866       240.65127324556724       242.12780527536907       227.73935186225702       228.49056912133832       230.98577113444523       227.03847075755303       228.62003433724402       275.867737455886         275.904676936853         273.30182249941214       260.66710184841486       262.3759735175042        262.2332672610077        260.71731048860096       260.7142714290452        262.29333806959374       262.3045896618527        262.20849428121744       262.14254402259246       257.73017544811324
3.75                     255.33783076626486       257.7040997832518        259.2482642711383        260.71349902557733       252.75599433630418       254.905557078923         257.1238596620307        258.33878104419864       256.71426696517403       253.83813229973822       250.8857614176307        252.91642701539604       254.36773893896424       242.28934382846694       243.60914930584983       247.5522483365681        249.24844821637555       240.1145451946461        241.62080915188923       227.23001166462024       227.95714769954918       230.47630355666652       226.49948024105836       228.107286599031         275.6516367534833        275.6886572826706        273.0871334283934        260.03393282354875       261.6970738776227        261.55305688351376       260.085214325796         260.08214385759754       261.63415312865095       261.64410297683025       261.5491149860227        261.48275459538087       256.68806787337314
4                        254.90383818811858       257.29844413703086       258.8149193990486        260.2978496388506        252.3086128451921        254.49091508569794       256.6740963527464        257.91903790006364       256.249258000885         253.38070897447574       250.39570593092301       252.4522200773618        253.93482335586154       241.75505140621132       243.1023198484073        247.0461949151567        248.78062732829238       239.577817143725         241.11381302840934       226.72067146698348       227.42372627776007       229.96683597888773       225.96048972456373       227.59453886081798       275.4355360510805        275.47263762848826       272.8724443573746        259.40076379868265       261.0181742377412        260.87284650601975       259.45311816299096       259.4500162861499        260.97496818770816       260.9836162918078        260.88973569082793       260.8229651681692        255.64596029863304
4.25                     254.4698456099723        256.89278849080983       258.38157452695907       259.8822002521238        251.86123135408005       254.07627309247283       256.22433304346197       257.49929475592853       255.78424903659595       252.92328564921328       249.9056504442153        251.98801313932753       253.5019077727589        241.2207589839557        242.5954903909648        246.54014149374527       248.31280644020927       239.04108909280396       240.60681690492945       226.21133126934672       226.89030485597092       229.45736840110902       225.42149920806906       227.08179112260495       275.21943534867773       275.2566179743059        272.65775528635584       258.7675947738166        260.33927459785974       260.19263612852575       258.821022000186         258.81788871470224       260.3157832467654        260.32312960678536       260.2303563956332        260.16317574095757       254.603852723893
4.5                      254.09857599917135       256.54044335057114       258.0093258778508        259.52170776059705       251.48064397507844       253.71757246445188       255.83838258024443       257.13327735735635       255.3872147451104        252.5321824146073        249.49313677650977       251.59178039449264       253.12651251038378       240.77581170020613       242.16864154177054       246.11509245996217       247.91310569875694       238.5937504894835        240.17949696207816       225.7852743967599        226.44854802590297       229.03140437940144       224.9753540231594        226.65347092644274       275.0031248223164        275.0403598946622        272.44389722533975       258.15318726524134       259.6928028478037        259.54621149292694       258.2071382265905        258.20399142042953       259.6821771120962        259.68869134086617       259.597263590753         259.53012890250176       253.6760447823614
4.75                     253.7604515855417        256.2162695055832        257.6693627924341        259.19036226648024       251.13535314069975       253.38843337757285       255.48615324749107       256.79565068239367       255.02610085133693       252.17612523369218       249.12159914977664       251.2314677939288        252.7815131691929        240.37807777955817       241.78405748237293       245.73284921986718       247.5494022289099        238.1936486638724        239.79428093791194       225.40322759491264       226.0552302460716        228.64956680686592       224.57827183625625       226.2697654487227        274.78670341700956       274.823975821953         272.23047830155775       257.5486940541398        259.06346722582964       258.91764052599365       257.6028785708717        257.5997276967136        259.06208778974036       259.068018048508         258.97806156530015       258.9112138632049        252.80863710630913
5                        253.42232717191206       255.8920956605953        257.3293997070173        258.8590167723635        250.79006230632106       253.05929429069386       255.13392391473766       256.45802400743094       254.66498695756354       251.82006805277703       248.7500615230435        250.87115519336498       252.43651382800203       239.98034385891012       241.39947342297535       245.35060597977215       247.18569875906292       237.79354683826136       239.40906491374574       225.02118079306538       225.6619124662402        228.2677292343304        224.18118964935303       225.88605997100262       274.5702820117027        274.6075917492438        272.0170593777758        256.9442008430381        258.4341316038557        258.2890695590603        256.99861891515286       256.9954639729977        258.4419984673845        258.44734475614985       258.3588595398473        258.29229882390814       251.94122943025687
5.25                     253.08420275828237       255.5679218156074        256.98943662160053       258.52767127824666       250.44477147194243       252.73015520381483       254.78169458198428       256.1203973324682        254.30387306379006       251.46401087186186       248.37852389631038       250.5108425928011        252.09151448681123       239.58260993826212       241.0148893635778        244.96836273967713       246.82199528921586       237.39344501265032       239.0238488895795        224.63913399121816       225.26859468640885       227.88589166179491       223.78410746244987       225.50235449328255       274.3538606063959        274.39120767653463       271.80364045399386       256.3397076319365        257.8047959818816        257.660498592127         256.39435925943405       256.39120024928184       257.82190914502866       257.82667146379174       257.7396575143944        257.6733837846113        251.0738217542046
5.5                      252.74607834465272       255.24374797061952       256.6494735361838        258.1963257841299        250.09948063756374       252.40101611693584       254.42946524923087       255.78277065750544       253.94275917001667       251.10795369094672       248.0069862695772        250.1505299922373        251.74651514562038       239.18487601761416       240.63030530418018       244.5861194995821        246.45829181936884       236.99334318703924       238.63863286541334       224.2570871893709        224.87527690657745       227.5040540892594        223.38702527554668       225.11864901556248       274.1374392010891        274.1748236038255        271.59022153021186       255.73521442083495       257.1754603599076        257.03192762519365       255.7900996037152        255.78693652556592       257.2018198226728        257.2059981714336        257.12045548894156       257.0544687453145        250.20641407815233
5.75                     252.43646427990558       254.94526042208284       256.33764926398936       257.8913431149454        249.78431025288353       252.0987078481258        254.10799081772777       255.47298476517815       253.61455781911107       250.78499667992168       247.67199504236837       249.82316021475276       251.43127826806568       238.82985220833746       240.2856533149597        244.24262035657162       246.12941156807656       236.6363922209995        238.29347205605774       223.9170425743341        224.52608619631326       227.1638675441562        223.03471230723738       224.7769505688198        273.92559436973755       273.9630101570305        271.3816482996704        255.1437160011044        256.5632118293651        256.42077741228223       255.19866521950917       255.1955047245112        256.5965319202687        256.60027701306836       256.51618463306824       256.4506163202061        249.40222501951038
6                        252.16110167083895       254.677631599552         256.05963009596815       257.6180319322621        249.5053256494498        251.828633298368         253.8234643780389        255.19664593224948       253.32589658425314       250.50180519427403       247.3809095347543        249.53536693102993       251.15179709831992       238.5261390123672        239.98897448585504       243.94566717936596       245.84236685979693       236.3312813695887        237.9964323489907        223.6274580938242        224.22990838932205       226.87371926151064       222.73618370027827       224.48571807623705       273.71924769348215       273.75668771953804       271.17889653585166       254.5678291237844        255.9714912045768        255.83055595709178       254.62263872177343       254.61948880041174       256.0090259882494        256.0125188882983        255.92985162478908       255.86485965619946       248.67398486213693
6.25                     251.88573906177228       254.41000277702113       255.78161092794696       257.3447207495789        249.226341046016         251.55855874861018       253.53893793834996       254.9203070993208        253.03723534939522       250.2186137086264        247.08982402714028       249.247573647307         250.87231592857415       238.22242581639694       239.69229565675036       243.64871400216038       245.55532215151732       236.02617051817796       237.69939264192365       223.33787361331434       223.93373058233087       226.5835709788651        222.4376550933192        224.1944855836543        273.51290101722674       273.5503652820456        270.9761447720329        253.99194224646448       255.3797705797885        255.2403345019013        254.04661222403774       254.04347287631228       255.42152005623004       255.42476076352827       255.34351861650995       255.27910299219275       247.94574470476348
6.5                      251.61037645270568       254.14237395449027       255.50359175992577       257.0714095668957        248.94735644258225       251.2884841988524        253.25441149866106       254.64396826639214       252.7485741145372        249.9354222229788        246.7987385195262        248.95978036358417       250.59283475882842       237.9187126204267        239.3956168276457        243.35176082495477       245.26827744323765       235.72105966676722       237.40235293485662       223.04828913280446       223.63755277533966       226.29342269621955       222.13912648636008       223.90325309107158       273.30655434097133       273.34404284455314       270.7733930082141        253.41605536914457       254.78804995500013       254.6501130467108        253.470585726302         253.46745695221276       254.83401412421063       254.8370026387582        254.75718560823083       254.6933463281861        247.21750454739004
6.75                     251.33501384363902       253.8747451319594        255.22557259190458       256.79809838421244       248.6683718391485        251.01840964909456       252.96988505897218       254.36762943346346       252.45991287967928       249.65223073733114       246.5076530119122        248.67198707986128       250.31335358908265       237.6149994244565        239.0989379985411        243.05480764774913       244.98123273495804       235.41594881535642       237.1053132277896        222.7587046522946        223.34137496834848       226.00327441357402       221.84059787940097       223.61202059848884       273.1002076647159        273.1377204070607        270.5706412443953        252.84016849182458       254.1963293302118        254.05989159152028       252.89455922856632       252.89144102811326       254.24650819219127       254.24924451398817       254.1708525999517        254.10758966417944       246.48926439001664
7                        251.0640661139491        253.61121744311953       254.95193639382657       256.52897381305417       248.394034322805         250.75261622409343       252.6902227603195        254.09584643949447       252.17646684287658       249.37433413265884       246.22225643752415       248.38938663012524       250.0387128003624        237.31794024133785       238.80860770827042       242.76388909814023       244.6997869853336        235.11757080017554       236.8146522803653        222.4757954741796        223.05209750178          225.71974244436987       221.54904884794686       223.32744430164817       272.89514362608395       272.93268010966864       270.36919111263336       252.26675751984266       253.6075461423914        253.47263103033862       252.32099124361625       252.317884382228         253.66167412496048       253.66417525968282       253.58719432235006       253.52451895338237       245.77171564556605
7.25                     250.81005986078267       253.36342727601377       254.6951192243241        256.2759147727543        248.13752934731315       250.50325101113842       252.4292259164032        253.84154583455435       251.91303339257465       249.1167558864473        245.9586903414952        248.12671294793375       249.78264629069037       237.0464148934368        238.5426390397877        242.49612758024938       244.439826449351         234.84502909380203       236.548468922817         222.2185018269001        222.78929911771854       225.4615996442174        221.28428295244535       223.06841021655924       272.69500152830926       272.73255984395945       270.1727358101864        251.70284748516335       253.03003495436664       252.89673248203613       251.7568574545042        251.75376486940434       253.08709296176775       253.0894241662974        253.01379994623062       252.95175520895083       245.09519368929654