% Model:              PicC_fullinst_foam.mph
% Version:            COMSOL 5.6.0.401
% Date:               Mar 30 2022, 10:29
% Table:              Table 1: Tsense - Tsense Eval
% Time (h)               Temperature (K), Point: 950Temperature (K), Point: 955Temperature (K), Point: 1264Temperature (K), Point: 1283Temperature (K), Point: 1353Temperature (K), Point: 1469Temperature (K), Point: 1480Temperature (K), Point: 1484Temperature (K), Point: 1716Temperature (K), Point: 1754Temperature (K), Point: 1825Temperature (K), Point: 1826Temperature (K), Point: 1933Temperature (K), Point: 1988Temperature (K), Point: 1989Temperature (K), Point: 2928Temperature (K), Point: 3088Temperature (K), Point: 3338Temperature (K), Point: 3339Temperature (K), Point: 3464Temperature (K), Point: 3467Temperature (K), Point: 3567Temperature (K), Point: 3653Temperature (K), Point: 3719Temperature (K), Point: 3724Temperature (K), Point: 3732Temperature (K), Point: 3749Temperature (K), Point: 3872Temperature (K), Point: 3880Temperature (K), Point: 3996Temperature (K), Point: 4004Temperature (K), Point: 4026Temperature (K), Point: 4161Temperature (K), Point: 4200Temperature (K), Point: 4213Temperature (K), Point: 4220Temperature (K), Point: 4339Temperature (K), Point: 4347
0                        282.9998126732313        282.9997270965869        282.9999187466409        282.9999093084738        283.00000989160765       283.00001756460375       283.00000496235464       282.99999963326053       283.0000080291176        283.0000021157261        283.000002361185         282.99999946506324       283.0000090458553        283.0000064124707        283.00000908571815       283.00000268237255       283.00214805607646       283.0006270058082        283.00062281474106       283.0016038284947        283.00005483996347       283.0000091141465        282.9999178689594        282.9998982643367        283.0003184771532        283.00032343548435       282.9997654891807        283.0000822860775        283.00008150761755       282.9999290688984        282.9999311650158        283.0010378354797        282.99883177683574       282.9999147776394        282.9980338805542        282.99802878975703       282.99908203675824       282.9990815743778
1.5                      283.180538111471         283.292350408688         283.8784546722548        284.08196170881587       283.31908582970897       283.007960879155         282.9734902532776        283.1200334265048        285.2685918250312        282.8708972735268        282.8379561818739        281.5912599141599        282.9112948136172        282.89150983669634       282.8891575047724        282.773577154666         282.5727013504656        285.7349778704875        285.7994252688339        281.7739804075607        284.7652143650402        283.6130406367342        281.7146207758988        279.17913113093346       279.43662138047046       279.4572477043509        278.53603294494064       277.97607980610434       278.0404081769716        275.9786138868869        275.99554639479874       277.981248435213         262.3491622170502        281.81514708741844       264.59014175251804       264.6621144193802        267.1173138443376        267.13108337773116
3                        282.6718484143743        283.2754749782477        283.808756201667         284.5743551525806        283.2164393114945        282.9859201132458        283.01037121898423       283.14104790940956       285.02677341264655       282.6881930677599        282.60868691810145       280.1985554711699        282.7889769807304        282.7385613221489        282.74096506357466       282.4797836156091        281.4113684386926        284.6203784280659        284.93757925965167       280.22610781682937       284.86661179769396       283.22464454078954       279.78517434535195       276.1096719647095        277.26575842333716       277.45624926492343       275.5527499672914        275.06705646110936       275.3383027678503        271.9856452176531        272.2811856169545        272.4697892288833        253.33221905274647       280.18164804422355       258.03671381855696       258.4890638618733        261.64320842004577       261.6793206847759
4.5                      281.3011667017234        282.3546922038773        282.40074114402455       283.8964777480729        282.4755383665917        282.73584804023005       282.9165703466316        282.9242809041372        283.3097315815433        282.5027803591322        282.3735804562886        278.8805883138534        282.665692722915         282.58001507924496       282.59460854550906       282.17584686462675       280.9795463548729        284.2061534763926        284.7544455469358        279.66503941425754       283.70603055044035       281.98265812287883       277.6123327162823        273.7529525743634        276.7833879363723        277.24821081480866       273.5100068141245        273.9735274284137        274.5212678883335        270.2114419012462        270.9163675291839        268.3810109845725        249.00961821192968       278.5287263519418        254.9741560240649        255.77395169129568       260.46322619854067       259.7317304708453
6                        279.15367405361803       280.36829886745596       279.8947139528625        281.9210095705384        281.0458210954386        282.18417343131165       282.5460769360106        282.4054657680428        280.41168101541336       282.31954488483115       282.14139951242447       277.62284802653676       282.5435942990202        282.42199717691443       282.45244940761245       281.8730153009626        280.72821195040717       284.15695672158705       284.91713335325505       279.4132081872855        281.13204562947607       279.5144225034338        274.9047303665327        271.17865430842915       276.5135502429583        277.60884334220816       271.09925699456926       273.26820861359715       274.5138731771644        269.2296895785644        270.74544731560854       265.2106948960065        246.65529879227088       276.94192288545077       253.34831085813087       254.20777082169658       269.1619056546246        259.60441004906477
7.5                      275.8783670799555        276.22515857561154       276.5118039431735        278.01715992313314       278.58912874402415       281.2398187910201        281.6229578890568        281.37983310573566       275.9239316661452        282.10596565128793       281.8791587369192        276.35540482020645       282.39579714149033       282.2417174170189        282.2759211639783        281.5423821361226        279.70881654466274       282.84545087923686       283.12635225177934       278.1098639145221        275.54545831019595       273.6782830868401        270.1444134755279        265.7330250235354        273.2822191419115        273.8631107675212        264.6714087885624        269.8263067752927        270.45173243956805       265.880094862883         266.7233371176816        261.54544169751915       244.03851597475318       275.15942506028074       250.05083817845895       250.2873831418217        259.6411304474482        256.6628435241241
9                        273.20109707664324       273.3155876151256        273.51579293339086       274.6001309641097        276.0854252016561        280.08940326311057       280.4510666769625        280.10932406923763       272.51445387648096       281.86951539598914       281.5939513788876        275.1024360092633        282.2300010325883        282.0444545775123        282.0786047657499        281.18904604540234       278.6092814823692        281.44704612841247       281.5556712083521        276.80788332125746       271.786857154772         269.82900588760515       266.5371947604594        261.89921424303213       270.6810611946861        270.99285873735994       260.51614496919706       267.00829998906147       267.3032545004131        263.13808446684357       263.5821488354149        258.15375109777926       242.014767837755         273.3367894007486        247.79364881298702       247.87025728677713       255.44819911575254       254.49031637870084
10.5                     271.109295284438         271.15138922876764       270.95467280989067       271.74963884820335       273.6796657339217        278.8187210860222        279.14135887652924       278.70962229987333       269.92835352500856       281.6164162394931        281.29207296286785       273.8740586313646        282.0509131007462        281.834374270273         281.867108568715         280.81833862452777       277.5892105336425        280.2713969808208        280.31969638063856       275.6588441643424        269.0628867690173        267.09171554521566       263.894381986281         259.2748732635058        268.74450975208435       268.9343135524337        257.75470718529556       264.88845106273754       265.0256786551138        261.07541659267775       261.31142643388824       255.19106832798442       240.50855816600847       271.5302485000394        246.30035984879603       246.3261013316018        253.25230618184165       252.95404996140167
12                       269.47603258748563       269.4929741390969        268.7989359828101        269.4064269699237        271.43837054252145       277.4927811945803        277.7707390672741        277.2611526563081        267.9338886244865        281.3513533505535        280.9784748176049        272.67491121250436       281.8617491758492        281.61459503667226       281.6453987063519        280.43487498815836       276.67953022895          279.34510257935307       279.3723654873966        274.6685604087471        267.0110114797303        265.06121948167595       261.94169520536303       257.4478925125528        267.31857722937895       267.4556210974655        255.87058345152417       263.3307294655659        263.39552220907825       259.56838677961235       259.7001933837001        252.67814630652728       239.40315405685814       269.7727180754981        245.3061156775771        245.31301492193026       251.9678477098885        251.88042676551456
13.5                     268.18943231984224       268.1961108075019        266.99647390854005       267.48380138895726       269.38815853749344       276.15818425279616       276.39124659236967       275.81763952302776       266.37461080449236       281.07775235150774       280.6568396061703        271.50700830054217       281.6647920696861        281.3874080802754        281.41605186480604       280.04235072633793       275.8724079857968        278.61848185872185       278.63773935110305       273.8091252933618        265.42882234652467       263.51447005092615       260.47474935498457       256.14072210558373       266.2536532238174        266.3675069689531        254.5466949791838        262.1828631940914        262.2142956414577        258.47056570418584       258.5496947635979        250.57677585744014       238.59349668323694       268.08205514740126       244.62876556270717       244.62725950439807       251.14820740838766       251.12525310511145
15                       267.15810782690994       267.1601320241339        265.4818470856286        265.8905431878088        267.52591061054335       274.8447191291988        275.0349755076298        274.4107083888568        265.13434839027457       280.79834973861426       280.33006041515836       270.3695188614879        281.46198621047586       281.15475225405754       281.18112267448015       279.6438709542737        275.1497768137063        278.03473766388686       278.0506364698941        273.0499117747551        264.1818752288437        262.3076234289825        259.34611956086127       255.1731480289075        265.43578338742475       265.53873894871555       253.58318268774786       261.31903805574234       261.33470964482603       257.6566158172945        257.70814250232814       248.8168622916515        237.99161823658287       266.46332769843724       244.14986325539112       244.1443101110256        250.5854825152526        250.5810785718808
