% Model:              PicC_fullinst_night.mph
% Version:            COMSOL 5.6.0.401
% Date:               Aug 1 2022, 08:59
% Table:              Table 3 - Point Evaluation 1
% Time (h)               Temperature (K), Point: 476Temperature (K), Point: 499Temperature (K), Point: 533Temperature (K), Point: 555Temperature (K), Point: 574Temperature (K), Point: 585Temperature (K), Point: 613Temperature (K), Point: 625Temperature (K), Point: 651Temperature (K), Point: 657Temperature (K), Point: 724Temperature (K), Point: 733Temperature (K), Point: 736Temperature (K), Point: 795Temperature (K), Point: 811Temperature (K), Point: 849Temperature (K), Point: 879Temperature (K), Point: 909Temperature (K), Point: 926Temperature (K), Point: 960Temperature (K), Point: 989Temperature (K), Point: 1015Temperature (K), Point: 1040Temperature (K), Point: 1073Temperature (K), Point: 1184Temperature (K), Point: 1273Temperature (K), Point: 1319Temperature (K), Point: 1451Temperature (K), Point: 1468Temperature (K), Point: 1905Temperature (K), Point: 1947Temperature (K), Point: 2341Temperature (K), Point: 2542Temperature (K), Point: 2682Temperature (K), Point: 2695Temperature (K), Point: 2721Temperature (K), Point: 2822
0                        276.2000000000004        274.2999999999997        269                      265                      265                      264                      259.70000000000033       258                      265                      251.90000000000006       243.2999999999997        265                      276.2000000000004        236                      273.6000000000001        265.40000000000026       234.834320298985         261.79999999999984       260.7999999999998        256.20000000000005       252.4                    249.09999999999982       239.79999999999998       233.70000000000016       274                      274                      274                      276.5                    278                      278                      276.5                    276.5                    278                      279                      279                      279                      264.3
0.25                     260.8463864108435        260.5714016955736        261.16186160811674       261.22259427202397       258.7710583184323        256.5870605476578        254.012816017764         248.38798910578907       260.97645383711756       247.3097788472655        237.4077114780474        258.81037036978506       260.4947579679459        235.6667933173654        259.37921122484096       259.231302491139         234.7753073883998        257.19294730742956       255.098475397637         252.2708123508684        246.1325103245603        245.67624700067378       236.45143617680688       234.6567202032395        268.42679561969          268.4549221783393        267.02576737205743       269.8210084592278        272.67955960934796       272.57199314945046       269.7770209146122        269.8440606270022        272.7217245992954        276.7807189827083        276.94734355950203       276.74722178156725       261.85586829213884
0.5                      256.35271994143636       256.52085469757          258.16710855900345       258.17358724552884       256.4954130977384        253.09398507436723       251.83023756226552       245.37975606122615       258.0235083109253        245.39386244636316       235.95857348815582       255.4039098471034        256.0916783109785        235.33644209338397       255.7411589821046        256.77361658815784       234.49125084396303       255.41993709517678       252.3545497725121        250.70322056934825       243.94825825272036       244.25089719262044       235.5901257504957        234.63796748104275       266.6414419130276        266.65830893694147       264.9818877335056        268.6386204206956        271.0070442483252        270.9045482822276        268.57678894784885       268.65669108531375       271.04320530487377       275.9076666188761        276.1983701144151        275.8720356149707        260.36597958715817
0.75                     253.23390732007348       253.66886926388256       255.70880033392854       255.2942678063369        254.5744912006605        250.45173657589342       249.97114878439098       243.26867476699934       255.25833755887172       243.87328215355564       234.9722690553794        252.5356654460697        253.1094021701406        234.86137394064133       253.10951153000764       254.70129909102          234.0663347512963        253.81186089737807       250.09604910349438       249.25546179928702       242.32319074227243       243.04981816919752       234.91540576590393       234.37428582078138       264.8916868614037        264.9071006510592        263.151710844066         267.5279366441425        269.5521648921779        269.4544555468551        267.4610553744002        267.54298131704326       269.58238612640275       275.22023051754815       275.6112667367486        275.1832626157876        258.89146673084434
1                        250.6653307253262        251.34893558171214       253.5293334954827        252.70266586004354       252.81553268651783       248.27046759339996       248.28299837334592       241.5679488010676        252.76217123335655       242.53150118115477       234.14726512235998       250.07644800832418       250.6647092809855        234.29767529207587       250.93456039870426       252.81261060446107       233.5643681020349        252.26788320621785       248.1221539588865        247.85835694472678       240.9408439656388        241.935360506095         234.27309854496048       233.97249089352002       263.1741651728521        263.18916588198243       261.43061308236497       266.44536830061014       268.2133037104513        268.1197123080587        266.3763053679998        266.45804725963865       268.238551604247         274.6062694428074        275.0819427763264        274.56974170014377       257.4441781480172
