% Model:              PicC_fullinst_radspace.mph
% Version:            COMSOL 5.6.0.401
% Date:               Apr 21 2022, 11:22
% Table:              Table 1: Tsense - Tsense Eval
% Time (h)               Temperature (K), Point: 950Temperature (K), Point: 955Temperature (K), Point: 1264Temperature (K), Point: 1283Temperature (K), Point: 1353Temperature (K), Point: 1469Temperature (K), Point: 1480Temperature (K), Point: 1484Temperature (K), Point: 1716Temperature (K), Point: 1754Temperature (K), Point: 1825Temperature (K), Point: 1826Temperature (K), Point: 1933Temperature (K), Point: 1988Temperature (K), Point: 1989Temperature (K), Point: 2928Temperature (K), Point: 3088Temperature (K), Point: 3338Temperature (K), Point: 3339Temperature (K), Point: 3464Temperature (K), Point: 3467Temperature (K), Point: 3567Temperature (K), Point: 3653Temperature (K), Point: 3719Temperature (K), Point: 3724Temperature (K), Point: 3732Temperature (K), Point: 3749Temperature (K), Point: 3872Temperature (K), Point: 3880Temperature (K), Point: 3996Temperature (K), Point: 4004Temperature (K), Point: 4026Temperature (K), Point: 4161Temperature (K), Point: 4200Temperature (K), Point: 4213Temperature (K), Point: 4220Temperature (K), Point: 4339Temperature (K), Point: 4347
0                        273.99928442489755       273.9990436906548        273.99941808047333       273.9993732510457        273.9999179460686        273.9999084332884        273.99994276911724       273.9998990674203        260.0013751815564        280.00000965624395       280.0000078642998        280.00000539560574       280.00001636687693       280.0000149588552        280.0000187097081        280.000005080804         280.00244358203327       274.0012398839696        274.0012332512948        280.0019457377466        260.00172720340805       260.0012604237283        260.00125579350043       273.9988826755353        260.00250740281706       260.00251573609705       260.00104893241024       260.0017551593634        260.0017564762471        260.0012503839755        260.00125417525413       274.0022560008393        259.99836055938215       259.9999793230617        249.99934939358513       249.9993221513642        250.00097591841782       250.0009881684603
1.5                      266.47364111614286       266.60117495859106       270.0022260369974        270.18577398613996       271.8100551530293        273.1778783792916        273.14543492677075       272.9422772679415        263.1827101049811        279.8063402433147        279.75991617629194       278.5673463630117        279.87734822419424       279.8473444337356        279.84523605002187       279.7120000535871        277.53702318081207       283.9280065418744        283.98230653188654       276.7391339638358        262.2050690984386        260.1478900040481        256.7721406632176        255.7166174017797        260.53548770767725       260.61624064523295       251.69195391749673       256.0499197766967        256.10208894507207       251.58407677124404       251.58922939438384       265.6962356983528        227.55992603343964       259.30482154228645       222.27036893480087       222.33874765707338       230.00987603031788       230.03693294957282
3                        262.668428774256         263.4262129061333        266.4005154889626        267.2817851998252        269.33323636729506       272.0646304017666        272.11380971018167       271.6099499163586        262.0805581503031        279.48933133933633       279.37642114029484       277.08743853640186       279.6755800626015        279.6033381740852        279.60850550274444       279.2763968215222        274.7416299027751        282.8097450626128        283.17168612292494       273.55958955433863       261.50775326748925       258.7350223557409        252.91468805448423       247.96916089227165       257.4007034715662        257.7328271519471        245.92251491954605       251.875537217088         252.2038121787389        245.79774493091895       246.19322451667048       256.2897099403989        210.2286239055083        257.69038631694275       208.68019028179773       209.26493957677167       220.98978687570929       221.02800777378312
4.5                      259.1252095928088        260.4773869278223        262.1953483383984        264.0634175673318        266.3947387149004        270.6323803770368        270.8730243520341        270.01239863389327       258.7489992525256        279.1507164061403        278.96663411473287       275.6615579791634        279.4587209540911        279.3392734746305        279.36011650887986       278.8031014114196        273.102948115949         281.8387708271901        282.4711621079763        271.7912534639417        258.9481323153393        256.00560866973996       248.67819112176738       242.71799482707877       255.88010761942007       256.57780809394995       241.5066160091445        249.54001670539918       250.21775782750387       242.4215642538125        243.37177607948877       248.83281377786145       199.0812514838873        255.92337232778593       200.03889774388585       201.11662076437932       216.54694319604474       216.34097722896865
6                        254.94048067537213       256.5840752068776        256.9962873937146        259.7310226599194        262.7864625944844        268.85864295673144       269.3330940383837        268.10115915776106       253.57156612280014       278.80693779052035       278.5517473533105        274.29017877885417       279.2366416643595        279.06889861203257       279.1105153140545        278.3170059245078        271.980288571493         281.38007412096925       282.3045952307413        270.68721767835194       254.3477453106074        251.51602774826418       243.5495443350886        237.46023567935913       254.92318738467176       256.58408130385635       236.68073914146996       247.9032641424249        249.64692967956358       240.208235558036         242.45495717958468       242.73059210256352       191.17791192511922       254.15107364611058       194.01851691082294       195.28475028536639       228.22979989329383       214.82254082526634
7.5                      249.33894235052242       249.8408210076282        250.92666218493756       253.1297310709362        258.1065410378975        266.6806791161961        267.20539188993024       265.68438965658805       245.97909506538406       278.42418709662496       278.0982288533086        272.89420180849464       278.9803353835194        278.76850462942343       278.8164270209107        277.78992839743205       270.23369423148546       279.53533228706954       279.88826855156185       268.66239179135147       245.26320944702465       242.06388763253233       235.27914397975582       227.8955391718391        249.97391494708478       251.00134975929163       225.8464929355615        242.60277084682482       243.61976580936022       234.9707319260054        236.4463429234823        236.426170393777         183.49773114478486       252.12423773548167       185.6389350861223        186.0408815282608        215.62631965770856       209.6058652143212
9                        244.56543878278578       244.73912010281617       245.45485237716136       247.1492849372065        253.47932137126062       264.30557241074547       264.82890419616          263.05205181221834       239.7762278991299        278.0121318356212        277.61543394914196       271.50367340527225       278.6994492862503        278.44492276501336       278.4943518412145        277.2298552283651        268.42413915594597       277.63524486270853       277.77093283101215       266.60272296839474       238.49926581218375       235.12298000638432       228.44848406895315       220.32904872819014       245.81457314504948       246.456130743666         217.76489986310773       238.03887308491804       238.59771935903035       230.43164001527467       231.35998434549472       230.56769776694233       176.88362724146066       250.00807935815303       178.57939987659375       178.73880041965538       208.03972190343373       205.18386198129542
10.5                     240.67004837259108       240.73995409077037       240.62957223509065       241.93414064762132       249.05794277799575       261.8280000592267        262.32626079526614       260.32290975059504       234.79221664299195       277.57840106484616       277.11106911091343       270.13130523416265       278.39988073441924       278.1033525684625        278.15246079564486       276.6440597318922        266.7282213651945        276.0213996391311        276.07791443474156       264.72599250228507       233.22669520100104       229.76499502195873       222.99818708670472       214.52547781918565       242.53416721598188       242.9777157540043        211.6158892271916        234.35407743231482       234.65360384463256       226.7187829750034        227.30278387786913       225.25300872079822       171.1911782240717        247.86038168576474       172.79753188994582       172.86222518638422       202.96677323711066       201.58565400543404
12                       237.49613302395915       237.53184243393454       236.40051373383926       237.42846017897367       244.90225547102204       259.31695259021654       259.78057828457673       257.5774566473745        230.73701988987702       277.12893048675676       276.591400407737         268.7838972890064        278.08584503998947       277.74785587512747       277.79593739289487       276.03894046810984       265.188484247613         274.7281101511001        274.7561255278965        263.064012084252         229.00308338751736       225.5161890635713        218.64955770564984       210.07507646334514       239.99682306211918       240.34388734643062       206.92326826952944       231.46422821863263       231.62485015554876       223.77970682870048       224.16273531559085       220.50146667434115       166.28872563529995       245.72124670630396       168.0942328487025        168.12937551516575       199.40320845254791       198.72684272929084
13.5                     234.864061892299         234.8829565444828        232.67884195324186       233.5089902690439        241.01830721070084       256.8205076453774        257.24632696544137       254.86699284063903       227.3579922409024        276.66833443128456       276.0613527823833        267.46403372235665       277.7606295947398        277.381714976588         277.42842789099456       275.41998191929156       263.7901922809329        273.68203064185883       273.69715921547413       261.58060852701146       225.5067020938833        222.01751717539227       215.09266444254135       206.54750408678981       237.98065357467075       238.27912673356064       203.20813276919645       229.16200793203572       229.2448972597426        221.4304554902291        221.69095226190126       216.25821945055273       162.0227563107765        243.61346957394645       164.2114982801562        164.23048586988705       196.7635436766566        196.43839474181948
15                       232.65854914831377       232.66897596841562       229.3955712027182        230.08375521987236       237.4010271448466        254.36880215979647       254.7566794704168        252.22209945851964       224.5103437520977        276.19969055456136       275.524234512747         266.1730481249887        277.42644185174146       277.00714476325885       277.052288813744         274.79106442886405       262.51462597851054       272.8210601797592        272.8301342649027        260.2433342381575        222.57534992618795       219.09607687123034       212.1434981629283        203.69791930056346       236.3530827875965        236.6271343533582        200.21659905333854       227.3111920867696        227.35046352632358       219.54247552854753       219.72707427403455       212.46795879302326       158.2863754043941        241.55016091956287       160.97385346012643       160.98281925602947       194.75050937953108       194.59951202032624
