% Model:              PicC_fullinst_night.mph
% Version:            COMSOL 5.6.0.401
% Date:               Aug 11 2022, 09:07
% Table:              Table 3 - Point Evaluation 1
% Time (h)               Temperature (K), Point: 136Temperature (K), Point: 154Temperature (K), Point: 203Temperature (K), Point: 224Temperature (K), Point: 291Temperature (K), Point: 328Temperature (K), Point: 365Temperature (K), Point: 395Temperature (K), Point: 458Temperature (K), Point: 478Temperature (K), Point: 518Temperature (K), Point: 527Temperature (K), Point: 629Temperature (K), Point: 639Temperature (K), Point: 643Temperature (K), Point: 651Temperature (K), Point: 716Temperature (K), Point: 730Temperature (K), Point: 732Temperature (K), Point: 773Temperature (K), Point: 803Temperature (K), Point: 833Temperature (K), Point: 850Temperature (K), Point: 884Temperature (K), Point: 913Temperature (K), Point: 939Temperature (K), Point: 964Temperature (K), Point: 997Temperature (K), Point: 1152Temperature (K), Point: 1241Temperature (K), Point: 1287Temperature (K), Point: 1419Temperature (K), Point: 1436Temperature (K), Point: 1873Temperature (K), Point: 1915Temperature (K), Point: 2309Temperature (K), Point: 2510Temperature (K), Point: 2653Temperature (K), Point: 2663Temperature (K), Point: 2686Temperature (K), Point: 2790
0                        274.9121595527507        275.940012823246         273.69974100369564       274.11583592684184       268.86511584566273       265.109866822886         264.7840508303708        263.8727744008247        259.45398526174813       257.80174477491056       265.093984246077         251.8260806010867        243.07090415275306       264.8031534470876        275.88160232425355       274.80687015111874       235.78341212991734       272.9817512642208        273.149943381241         265.2855446725064        229.4111170875821        261.5989520576145        260.7321079389122        256.0613190851132        252.21749866685744       249.00965786082097       239.59192309643666       233.56167246158284       273.6986099572432        273.5981126226403        273.83132162849057       276.03609574573096       277.2990441958269        276.9541176654938        276.1075627959583        275.9030373661694        277.31595220443967       278.99939407327685       278.9990413256788        278.99862185992157       264.29751342662564
0.1                      270.46946167653425       270.40617628899963       270.77708938733997       270.5195394650385        265.67329759666734       265.72259356081423       261.9330480716837        260.6694319021327        256.2860426191288        252.06446476689277       265.6261111166492        248.63869383745512       236.91470687005142       262.30878758887155       270.3363172973457        270.4108545510363        233.05053572032642       270.35322884028574       270.56175656994265       263.4581637980178        229.44249058286124       260.01693776960724       258.56912761040985       254.30621022428315       248.8157537110265        246.6263312601027        235.372199894385         231.74930065041454       270.7922162552235        270.8490805509442        270.0417283680446        270.7495493280277        273.9286250634956        273.8200020087109        270.73793748112814       270.77667896545614       273.96881796425885       277.72713651694056       277.65951527597105       277.5914553186758        262.36105420427515
0.2                      269.3373387990914        269.2818144626941        269.85948895210373       269.61709374810954       264.64178082947495       265.59178264827824       261.0513836714875        259.17244211450395       255.32480857978862       250.2474931150003        265.50004022839187       247.4068719974449        235.24477391778117       261.1659804058641        269.2298154310457        269.2961034071477        232.30475159762636       269.4658627363034        269.6585608306591        262.77109232544393       229.38178349074593       259.5074185336433        257.64421143694074       253.73733124437896       247.640125620956         245.72203814144652       234.2446933329989        231.23267738265238       270.2172278159598        270.2578012099349        269.25064624648786       270.0954606488324        273.05294714924975       272.9463944131676        270.0610004068476        270.12250211263574       273.0929026337465        277.2247318348633        277.1886997245439        277.09183821197604       261.5376155615835
0.30000000000000004      268.4970439473392        268.4500495252832        269.05446908418674       268.82859775079305       263.7858117379795        265.2928673854733        260.3374140637587        257.90451288039276       254.5021127113673        248.862168829945         265.2195478514953        246.42023767362278       234.1303639859431        260.1192643335126        268.41396131647696       268.4701682179926        231.71626531667295       268.6688922984036        268.8478184301951        262.18159245050464       229.25619391361218       259.05835807152204       256.8154393265253        253.22291418759752       246.715667094653         244.98775216911207       233.4887063569365        230.80536291803352       269.67457767511416       269.70921129015744       268.56330963112754       269.5824047298163        272.31634275849774       272.213731798636         269.53478697724086       269.60796081593577       272.3541001599462        276.855379425165         276.8432699668867        276.7209039876794        260.7675834672506
0.4                      267.76029181009807       267.71816316993034       268.2874791967818        268.07522344197037       263.02029902057126       264.89136484405196       259.70117501188844       256.80142569426494       253.7510720679905        247.72386172747588       264.8413524919436        245.56983436946243       233.27917764765147       259.1423791807224        267.69561682168865       267.7457242441326        231.18908745086432       267.90303547451083       268.06998520338954       261.63421860222          229.07708160009415       258.623725263523         256.04577845039233       252.72623995706815       245.92731687349635       244.339714988057         232.89903149330095       230.4057988366966        269.13730846358584       269.1697273235409        267.92644792307635       269.10918309003677       271.64670612335215       271.5469082091006        269.0545151445834        269.1326196360655        271.6819302782987        276.5506458244444        276.5582043450331        276.4142249574048        260.0231135295763
0.5                      267.06112256513325       267.0225812835253        267.53576127942125       267.3354431762559        262.308235662391         264.42447819266135       259.1054008731426        255.81933861233492       253.04406537757112       246.74257406318134       264.3983351483204        244.80332059941176       232.56998885589505       258.22597107158754       267.01166830670144       267.0571181928939        230.68887356023552       267.150227079064         267.30660342950927       261.1050825705926        228.85549388041574       258.18722718963755       255.31772935555284       252.23366520254203       245.22091784431825       243.74009611212668       232.39134831635553       230.01348777886275       268.60017226120806       268.63196873768663       267.3195025031972        268.6526151413007        271.0203354457616        270.9231476504318        268.593985534013         268.67421493358574       271.05302680555          276.281899691942         276.30660814414597       276.1439849190761        259.2952002197467
0.6000000000000001       266.37457431248146       266.33904730540945       266.79097923540587       266.60151744950525       261.62559270359725       263.9208008615804        258.52899195774546       254.91261463131784       252.362118246801         245.85157710352414       263.9175835972323        244.084132967182         231.93395148866975       257.35301743733345       266.33840852238984       266.3798813497903        230.20042236350585       266.4036369960473        266.55039447658436       260.58247681974217       228.60621345815605       257.744689789616         254.61580593131947       251.74024493491234       244.5594583872991        243.16574000808967       231.92175542922413       229.62179371510746       268.06197545502084       268.0937285232978        266.7292437114989        268.2037815240421        270.41989429382863       270.32523017376315       268.14261972510167       268.22377459836434       270.45015410389277       276.03228448043706       276.07281682621374       275.893332416679         258.57787327079114
0.7000000000000002       265.6936124485102        265.6606804735638        266.0514337475834        265.8718516856088        260.965728385396         263.38886096611145       257.96545362876634       254.06882296290232       251.70038441016092       245.03216683979787       263.4069674077135        243.40211250238892       231.35148207989937       256.5210159315447        265.6690479176855        265.7070609461112        229.71984741452601       265.66196667584757       265.79997487930467       260.0624481858767        228.33314507009896       257.2941659738421        253.93640622762987       251.24423413015552       243.93217899778594       242.60990832754018       231.47706034587839       229.22885578650084       267.52260484162593       267.5545757291712        266.152169580838         267.7606757991797        269.8414161064091        269.7491787857075        267.69789053802765       267.7792438391437        269.8693861059149        275.79700337544637       275.85239805217725       275.65745902485634       257.8702015583426
0.8                      265.0147067283174        264.98402462148005       265.3170038340579        265.1463391785353        260.32565627084836       262.83328484554374       257.4111633102592        253.28269572692378       251.05730135592165       244.27554885143897       262.8705800638879        242.75266571892763       230.81265032465103       255.73114337147          265.0001208078168        265.03511502254247       229.24572400636566       264.9253250063405        265.0554517668678        259.54248218081455       228.0379293639351        256.8339731369771        253.27875223646046       250.74457434825854       243.333649880484         242.06919011862587       231.04989290862153       228.8337334439334        266.98234194954387       267.014612093388         265.58682920854176       267.3227223937544        269.2839964250896        269.1940642670413        267.2589252285493        267.34002147974394       269.30984988720184       275.5735351750169        275.64303623300077       275.4338265317976        257.17272533296887
0.9                      264.3358696791494        264.3071705683682        264.5879380404455        264.42531102725764       259.7018982948301        262.2598003259494        256.8628103852063        252.54570876257455       250.43097318577043       243.57028608007184       262.3139226129437        242.13017710254073       230.30675453844805       254.98162521741352       264.3298082512286        264.3621372789011        228.77719765482303       264.1941471563914        264.317198274412         259.02076044277396       227.7237934831198        256.36370305455586       252.64108346054164       250.2411076582354        242.75763657156276       241.54004406819408       230.633417416322         228.43618953475897       266.44189884065776       266.47442452811634       265.0314140926394        266.8894478333621        268.74587997489056       268.6581114954711        266.8249947711813        266.9056060100362        268.76980049619004       275.35892357296956       275.4420071270364        275.21940537717614       256.48577169770914
1                        263.65689850798327       263.6299845420021        263.8647217362632        263.7093891422557        259.0911026946765        261.6741818299451        256.3180682532083        251.8477972968347        249.819450716963         242.9044549716426        261.7428983325876        241.52906372053363       229.82408102384923       254.2678478131229        263.6581531030097        263.68808796287084       228.3139556744373        263.4690415553121        263.5857087306424        258.49656084677844       227.39492004522126       255.88435262978024       252.02092085571803       249.73463293802456       242.19831678795603       241.01947334652337       230.22251214176026       228.03662251356184       265.9022146891313        265.9348998082589        264.48404757362096       266.4604381421308        268.22463093392525       268.1388767668236        266.39551943228054       266.47555947160936       268.24679157263824       275.15027196310416       275.24663178858066       275.0111940237536        255.80935011159883
