% Model:              PicC_fullinst_night.mph
% Version:            COMSOL 5.6.0.401
% Date:               Jul 29 2022, 13:32
% Table:              Table 3 - Point Evaluation 1
% Time (h)               Temperature (K), Point: 476Temperature (K), Point: 499Temperature (K), Point: 533Temperature (K), Point: 555Temperature (K), Point: 574Temperature (K), Point: 585Temperature (K), Point: 613Temperature (K), Point: 625Temperature (K), Point: 651Temperature (K), Point: 657Temperature (K), Point: 724Temperature (K), Point: 733Temperature (K), Point: 736Temperature (K), Point: 795Temperature (K), Point: 811Temperature (K), Point: 849Temperature (K), Point: 879Temperature (K), Point: 909Temperature (K), Point: 926Temperature (K), Point: 960Temperature (K), Point: 989Temperature (K), Point: 1015Temperature (K), Point: 1040Temperature (K), Point: 1073Temperature (K), Point: 1184Temperature (K), Point: 1273Temperature (K), Point: 1319Temperature (K), Point: 1451Temperature (K), Point: 1468Temperature (K), Point: 1905Temperature (K), Point: 1947Temperature (K), Point: 2341Temperature (K), Point: 2542Temperature (K), Point: 2682Temperature (K), Point: 2695Temperature (K), Point: 2721Temperature (K), Point: 2822
0                        276.2000000000002        274.29999999999984       269                      265                      265                      264                      259.7000000000003        258                      265                      251.90000000000012       243.2999999999999        265                      276.2000000000002        236                      273.6000000000001        265.4000000000004        234.86279052460876       261.7999999999998        260.7999999999998        256.20000000000005       252.40000000000015       249.09999999999982       239.7999999999999        233.7000000000002        274                      274                      274                      276.5                    278                      278                      276.5                    276.5                    278                      279                      279                      279                      264.2999999999997
0.1                      266.23572089819896       265.3650645197432        263.90356566888283       262.9505218568313        260.85815014279274       259.6054331646619        255.89801608197888       251.62091622547095       262.7260398592666        249.1116671909318        239.3382295140297        261.3008752854608        265.9554731421087        235.81328271299543       263.82188333567603       261.4083907699046        234.86701747636263       258.71758282766035       257.34973119618485       253.54263015765594       248.38198175575135       246.9960989086068        237.53495935951597       234.42610373938265       269.6548199051459        269.7582506009354        268.7080528546028        271.05888089515446       274.01342081531703       273.89325387395087       271.0675951392715        271.05955151651824       274.0570788964691        277.67710277822795       277.75576203389215       277.64276530482107       262.887686992873
0.2                      262.3653754972416        261.9342763895257        261.97818383375966       261.81435317912064       259.4038168458473        257.51881882296493       254.59005778201129       249.3315886744099        261.5690830576908        247.8559530284211        237.94951360351288       259.6013183293391        262.0256839266564        235.73022950799933       260.62272876304996       259.8883640513366        234.82920061477753       257.66519038920427       255.79492368927248       252.66725194185264       246.80007919908294       246.07795338793574       236.76030239182734       234.6133797445023        268.82541711360585       268.8688643689787        267.5407351511612        270.15807908976205       273.09079585139517       272.97972454577234       270.12598015785306       270.17784776123386       273.1335150425016        277.0406764863908        277.178691790607         277.00685701200945       262.1798653096944
0.3                      259.62735381353764       259.50960979183384       260.46007813225845       260.630814585528         258.2541667845372        255.75326370071366       253.5231316449865        247.6184363122345        260.39556797510977       246.85770734920305       237.0193105083419        258.05930266294865       259.2787650661815        235.6384584518269        258.4423074805509        258.6646330911329        234.76457280002595       256.8138056585574        254.47165840548337       251.93965558707328       245.59527088848125       245.35270264106344       236.2369247589666        234.7115751200166        268.07252571477426       268.0945854688719        266.5816688206857        269.55658537218636       272.2997865184731        272.1922043848501        269.50505733906857       269.57855345535233       272.340967423917         276.56616689698296       276.75994946555215       276.5323824643347        261.55640663402056
0.4                      257.85497502280134       257.9072959359469        259.26584393264875       259.3974838725033        257.3489294402144        254.34391013743925       252.65197093130152       246.416256829161         259.2023008227963        246.0935786184288        236.45177751467799       256.6853235718314        257.5446753965514        235.51109545524136       257.00414389788074       257.6858863437763        234.65283948989708       256.10996663251046       253.37002134643834       251.31635377234886       244.7235407399983        244.78660794102697       235.9022282434314        234.7075014405683        267.35936911939206       267.3779364981299        265.7660342890938        269.09169203474517       271.63177006083737       271.52628695745904       269.03341429616415       269.11134142481194       271.6703927026665        276.22016948787814       276.4645133485711        276.1852395877019        260.961950060212
0.5                      256.36118828768446       256.5417412812102        258.1756463822955        258.18099976543556       256.5138259069111        253.10330877742882       251.8439577718443        245.39448715337682       258.0319007422496        245.40903978851932       235.97782073094388       255.40720023165665       256.10109112948356       235.35542295399193       255.76244044337304       256.78345404146364       234.51326677892376       255.43915862158337       252.36209478668755       250.71721869445557       243.96510776110674       244.26624965482816       235.6069561867972        234.65550030529005       266.6522327357068        266.6691356199019        264.991994655615         268.63751800029684       271.00622781440046       270.90282957644115       268.5752574587579        268.6555230330816        271.0422542347365        275.9112035874897        276.2016042628864        275.875213811336         260.36814759058916
0.6                      255.04353675887944       255.33371626138674       257.1600963318389        257.0036660532301        255.72505845389833       251.9908508090314        251.08049230459542       244.49787626033606       256.9010945568819        244.77830850884658       235.56085461814732       254.21710968911623       254.83775511620357       235.17569675941394       254.65248708904534       255.9328304940201        234.35183558910984       254.7872354796388        251.42651509774498       250.132066964914         243.2832261998168        243.77433085496367       235.3309173443631        234.56617574580693       265.94932414935545       265.9654126602201        264.247159711537         268.1900944129498        270.4109109919362        270.30954031568456       268.1253592706313        268.2067959910106        270.44447668252155       275.6267234209851        275.959149031313         275.5899819274328        259.7766289391952
0.7                      253.81838985778654       254.21162372193513       256.1868525312155        255.85820510361307       254.96155365604974       250.95110279108764       250.3422448636976        243.66939174373562       255.80102790095677       244.17667202901882       235.17303359178402       253.08302119656437       253.66749461906915       234.98176441797096       253.61518985412656       255.1107073657395        234.1779165454413        254.14505381689816       250.53314034668117       249.55417666066242       242.64236481590248       243.29709659471493       235.06303662538767       234.45521407099122       265.2494530735912        265.26506400310797       263.5188359511379        267.74674947345727       269.83294049735855       269.733535981051         267.68020631984444       267.76228047737476       269.8641611573486        275.35525370552267       275.7272833201804        275.31799912587627       259.18735276437735
0.8                      252.68956165647975       253.18180103626094       255.26060944846998       254.7571193826418        254.22548724294262       249.99088431551635       249.6323479008551        242.91292485081334       254.7428049041482        243.60594220263775       234.81436782739635       252.01617084661402       252.592388397439         234.77214685219238       252.6566901239241        254.3196383664935        233.99046546063767       253.51338772580408       249.68754088570407       248.98429717083974       242.04431855757534       242.83492917592852       234.80172609578918       234.32028304481844       264.5540834810775        264.5694464809985        262.80885266931966       267.3080738902996        269.27450937329417       269.1769724295445        267.2402832762407        267.3225519056938        269.3035397535263        275.09706604842853       275.5059880005684        275.05960276163745       258.6017545243012
0.9                      251.6459940554841        252.23619157252668       254.3793144346599        253.70744817126632       253.51532693571258       249.10413699635293       248.95031493742195       242.2204797235494        253.73230567828085       243.0632363705495        234.4798314481958        251.0179406554932        251.59947730947033       234.54832911350837       251.77099569747958       253.5578476186364        233.79089340484038       252.89209239462517       248.88829407862707       248.42268034283205       241.48386734900743       242.38602737119962       234.54417080298373       234.16310873177267       263.8647256229826        263.87992757457516       262.11645388448574       266.8740150955653        268.7349796931139        268.63918122762755       266.8053396956308        266.88753333774366       268.7619894689825        274.84997432641836       275.2932719302965        274.81261331800994       258.02128543655135
1                        250.67280103886          251.3614898881805        253.53826691777002       252.7104011425422        252.82852547050953       248.2795555525957        248.2943365782933        241.58017568857784       252.77020025333158       242.54435554412956       234.16331809251503       250.08331932137742       250.67258920185296       234.31335791863384       250.94737869782097       252.82222091888866       233.58172428466943       252.281167046896         248.13073222225324       247.86981695060712       240.9538331063764        241.9483220491431        234.28804737323924       233.98740193022104       263.18277614331714       263.19781495392266       261.4398965041064        266.4442587451488        268.2123742682583        268.11816828079344       266.3749043829862        266.4568931844982        268.2375279321236        274.6110236824661        275.0866194339104        274.57403434359554       257.44723542726797
