% Model:              PicC_fullinst_orientation.mph
% Version:            COMSOL 5.6.0.401
% Date:               Mar 17 2022, 11:23
% Table:              Table 1: Tsense - Tsense Eval
% Time (h)               Temperature (K), Point: 888Temperature (K), Point: 893Temperature (K), Point: 1116Temperature (K), Point: 1135Temperature (K), Point: 1205Temperature (K), Point: 1321Temperature (K), Point: 1332Temperature (K), Point: 1336Temperature (K), Point: 1568Temperature (K), Point: 1602Temperature (K), Point: 1673Temperature (K), Point: 1674Temperature (K), Point: 1781Temperature (K), Point: 1836Temperature (K), Point: 1837Temperature (K), Point: 2776Temperature (K), Point: 2936Temperature (K), Point: 3174Temperature (K), Point: 3175Temperature (K), Point: 3296Temperature (K), Point: 3300Temperature (K), Point: 3303Temperature (K), Point: 3403Temperature (K), Point: 3489Temperature (K), Point: 3555Temperature (K), Point: 3560Temperature (K), Point: 3568Temperature (K), Point: 3585Temperature (K), Point: 3708Temperature (K), Point: 3716Temperature (K), Point: 3832Temperature (K), Point: 3840Temperature (K), Point: 3997Temperature (K), Point: 4049Temperature (K), Point: 4056Temperature (K), Point: 4175Temperature (K), Point: 4183
0                        283.0026720920719        283.00254910925923       283.0036881531488        283.00496379371424       283.0079129261432        283.00326943527267       283.00216812124285       283.00368361929065       283.004882647965         283.00004692104125       283.00005758106977       282.99998030575273       283.0000832753115        283.0001162129355        283.00012049894667       283.00012576192324       283.00190150900096       282.9986896282255        282.9983699912185        283.0010246557732        283.00150188487777       283.0037767768611        283.0035758182187        283.00371505620257       283.00304986273886       282.99814151897726       282.9979478909662        283.00240403017744       282.9978586442194        282.9976669756681        282.9977024702752        282.9990088489942        282.9984927149731        283.0026978684095        283.00264566980485       282.9975055267507        282.9975121184107
1.5                      301.36066492711745       301.7156567352149        298.2646362323059        298.3768242465725        347.0241241283281        298.95718060315914       297.35222026504727       303.09574313180633       304.1463966500177        280.64724504953205       280.22321284799443       265.40384002976          281.42694915379894       281.30138841733435       281.29643100542137       279.5270748641305        280.03941175798457       281.03757346232237       281.2151146677928        279.5472876512644        279.85724017234173       303.1179471496817        302.36504308786544       292.3308143630324        284.5353251304533        268.86609989678766       272.3011652990842        286.6006639064099        267.49364217464097       270.7641641210537        274.8675690738866        268.53929407710143       261.6105221110824        280.5148147603971        280.58812376120443       277.66353361424495       266.9530732988563
3                        302.62745101236135       303.8104768484939        307.14270804905226       305.96645193552376       366.55612144850795       313.7960579116098        308.47621646846335       319.63515993131915       306.2916863699032        278.59620537410837       277.62405647954813       257.1792367534178        280.208199344323         279.5439585227239        280.27007426837235       276.5536177526786        279.9362128534424        280.65384980026425       281.65424612287893       277.21038239411786       280.08616126954337       304.64851911694063       304.86139304057895       291.70961576287834       284.9442947283389        264.9734405767746        267.1802174697356        285.1700853284418        263.5056357689468        264.77753514197195       273.0159223442352        263.5210135910503        256.78537024908155       277.6435616525468        278.04114149504557       264.35864646768357       261.88783901222314
4.5                      294.96135740737947       296.660552162574         308.4507146509215        306.19954321426405       361.9649135492838        322.90387401925966       313.38654481619244       329.0948413197408        299.6694645797174        277.4487451208781        276.0611929421487        253.71391690368955       279.6798811184645        278.3805624273671        280.35323443696467       274.76206105111663       281.24280641967016       281.1223466543675        283.19876970883536       276.4488537277043        282.40457220831917       296.71072284826744       299.34741484507174       284.89036211321223       283.0227100297135        264.603099453461         266.2182730632579        280.73855176441714       262.88651651640754       263.1821886180991        265.2030042476064        262.27798944823223       255.46367932374486       272.3219175380995        272.8824531935909        261.2767773706351        260.50506070114017
6                        283.48209987009614       285.9434775297132        302.17148550348304       299.3841992941683        341.96257363047204       322.7063906295578        309.77484145216704       328.08096310635534       288.12065461782754       277.4067384233287        275.463186141678         252.85874088259337       280.077987400135         277.7941403510055        281.1974120927641        273.9353845243246        284.22051920741666       281.7881784288362        284.5292649479155        276.4967525287387        285.0812511109172        284.1696848009234        288.29441149262107       274.94566602931616       278.61743119201753       272.0333429991102        270.5194461028915        274.1114318006839        269.8121845995742        267.12880369728464       270.1229035607839        266.1374610764775        254.91914108400107       264.9266356981365        265.31664757144          267.8586475709853        264.21157348396605
7.5                      270.6404300051187        271.7186418652322        288.5088595579936        286.33858191587035       313.194886771932         311.38756612088554       300.81287884060464       314.9857969878352        270.5826160433877        276.04926207835183       274.05121268856414       249.27749084133143       278.95470421035174       276.62695979045424       280.01513723638465       272.50261194978543       280.7827536373295        280.99693440809256       282.1170143725887        275.145084918275         281.3538625373009        269.3829822463489        272.25153156742357       264.015075561974         267.3231440180511        267.6188460208711        266.69183641565934       266.38514859549866       265.62182449424864       263.9308191327851        265.1534748249865        262.95296596728093       249.6149222906556        257.06897674045354       257.18916457699106       263.6586178784991        261.4057577915441
9                        261.3489531121567        261.58488058768324       276.50106023413684       274.90874673466016       290.82664021816345       299.12991873162963       291.5601754678988        301.23145447419364       258.87307527897235       273.8696785721461        272.09964036798016       244.87996661918515       276.9423272269531        275.05507471467973       277.86574749216334       270.64133846630943       275.9886948929688        279.82725150575664       280.0592752005472        273.17948591025174       276.8399560611619        259.6600091210576        261.5615246728244        256.7924168809523        259.9064755293998        262.51680061182475       262.47094538489387       261.70357981300896       260.867936758273         260.37544114189615       260.12762142637894       259.52100021481675       244.53544801911477       252.41194566767513       252.4334215722284        259.06638995637087       258.3789823456444
10.5                     255.74323554689337       255.8075173414551        268.0389008824708        266.78574236097944       276.28560471829877       289.1112328435061        283.4982194213671        290.28008523432004       253.1272515141144        271.5771080785613        270.08979207438324       241.14212322123237       274.7627529285268        273.38999974653274       275.64523574004585       268.75207369538623       272.36186307498156       278.9874166070897        279.0589793508038        271.357896074555         273.72023336766733       254.5994788182064        256.2791215040722        252.94547880287112       256.9896488604159        260.3689488156748        260.50492336697573       259.6968756575974        258.94360436786866       258.80025518563485       258.1905164993993        258.06358512144544       241.38681831095326       250.40106414808213       250.4072660173136        257.3638967853183        257.16486004089234
12                       252.32973576037418       252.35203288442491       262.0041077549906        261.00456558604174       266.57485844229933       281.02767255132034       276.72889320424554       281.66860045743437       250.065616233603         269.4149075418012        268.2053077644816        238.15085763041824       272.63919172249496       271.76185289239066       273.5579209670701        266.9982808218915        269.6547378147512        278.46266988479493       278.5002675650862        269.8190842275304        271.5088700602619        251.82702078073893       253.4798060214681        250.8349030584596        255.81679330328475       259.42386901402955       259.5788333480297        258.856950573899         258.14663471502945       258.09789679834375       257.439225540118         257.44668269412466       239.506807249499         249.55687584606778       249.55926691937876       256.7411705546417        256.68611962489933
13.5                     250.14930467109065       250.15742408819455       257.56929541427604       256.7747319202066        259.81509087217927       274.4646358363735        271.09100912124734       274.8312840541684        248.2623835942859        267.4505194723559        266.49731627545384       235.74337380713828       270.65003888938423       270.22323770185204       271.6485849768059        265.42101116550646       267.52507697754          278.1228748993303        278.15003489411833       268.51249671308915       269.80686087777804       250.18414289421878       251.84269278818374       249.59167824750816       255.2843731405983        258.9444084315383        259.09041417013987       258.4764935134694        257.7712899350936        257.74884378839556       257.1116901947658        257.1573595536737        238.3611772444447        249.17957192921756       249.18027849808806       256.4895836599091        256.4787075171565
15                       248.68906615556602       248.69139120164468       254.21778425918356       253.59191369832612       254.94267703891194       269.07384444736437       266.38002682598534       269.3251219635589        247.1201878469027        265.6818472319768        264.9604176237464        233.76465803959377       268.81164057089205       268.78691511028046       269.9118674569629        264.00860816583656       265.76468272981214       277.8867914965447        277.90984059460396       267.37261996650045       268.405828778292         249.14692282745375       250.81189941182606       248.8113667711451        255.00939693690685       258.6638843169924        258.79954946790184       258.2858282415363        257.56803903192605       257.5532224765037        256.9477145800777        257.00433584316414       237.64159209932993       248.99630608615695       248.99617142226444       256.37401092889417       256.37751616101303
