% Model:              PicC_fullinst_night.mph
% Version:            COMSOL 5.6.0.401
% Date:               Aug 5 2022, 07:42
% Table:              Table 3 - Point Evaluation 1
% Time (h)               Temperature (K), Point: 136Temperature (K), Point: 154Temperature (K), Point: 203Temperature (K), Point: 224Temperature (K), Point: 291Temperature (K), Point: 328Temperature (K), Point: 365Temperature (K), Point: 395Temperature (K), Point: 458Temperature (K), Point: 478Temperature (K), Point: 518Temperature (K), Point: 527Temperature (K), Point: 629Temperature (K), Point: 639Temperature (K), Point: 643Temperature (K), Point: 651Temperature (K), Point: 716Temperature (K), Point: 730Temperature (K), Point: 732Temperature (K), Point: 773Temperature (K), Point: 803Temperature (K), Point: 833Temperature (K), Point: 850Temperature (K), Point: 884Temperature (K), Point: 913Temperature (K), Point: 939Temperature (K), Point: 964Temperature (K), Point: 997Temperature (K), Point: 1152Temperature (K), Point: 1241Temperature (K), Point: 1287Temperature (K), Point: 1419Temperature (K), Point: 1436Temperature (K), Point: 1873Temperature (K), Point: 1915Temperature (K), Point: 2309Temperature (K), Point: 2510Temperature (K), Point: 2653Temperature (K), Point: 2663Temperature (K), Point: 2686Temperature (K), Point: 2790
0                        274.81583577283317       276.19999999999993       273.7790223087023        274.29999999999984       269                      265                      265                      264                      259.7000000000003        258                      265                      251.90000000000026       243.2999999999997        265                      276.2000000000003        274.6938389559376        236                      272.96278734184625       273.19541594387493       265.4000000000003        235.13780556987913       261.79999999999984       260.79999999999984       256.20000000000016       252.40000000000026       249.09999999999977       239.79999999999976       233.70000000000027       274                      274                      274                      276.5                    278                      278                      276.5                    276.5                    278                      279                      279                      279                      264.29999999999995
0.25                     268.2468327355731        268.1634958668673        269.53413069719716       269.2140296604205        261.21616457857954       263.71020135823153       258.8911469972704        256.6451041479145        253.90074308136892       248.55348909516098       263.5000408569546        247.30785993542833       237.65188331189563       258.9220420442829        268.04404085515404       268.14599007645216       235.88561831630957       269.07606285158005       269.3267285178383        259.4386213404274        235.0532442984477        257.4461416020169        255.15120724394419       252.32135947669485       246.21491892642757       245.71148017817927       236.67256468298743       234.86653951806352       268.0817762794559        268.1330724490012        266.9579788114531        269.82204793536033       272.677927555378         272.57182410532175       269.77928231840986       269.84933931020885       272.716215911146         276.9781770155656        276.95445537239306       276.8531040546152        261.877924148606
0.5                      266.2175606166057        266.14074512475634       267.6613647765319        267.3710826057688        258.40714683496134       262.1525230981348        256.78644612747416       253.14587095168952       251.74102411497861       245.51820769287815       261.98524955525295       245.3759051471741        236.22904987087125       255.56492771800396       266.0477437994322        266.1406315501163        235.57388095860867       267.2159096650136        267.44010062329374       257.1337187385646        234.75567247650193       255.82880206223206       252.44961130046235       250.7459397524766        244.04555764743628       244.26959862473194       235.8354986336829        234.86843350651813       266.2611855214559        266.30206256136387       264.88882701127403       268.639012518849         271.00443090644086       270.90377179132184       268.57850388529664       268.6602448200548        271.03638178827333       276.1891413332933        276.2125134578268        276.06294175881925       260.3968999520188
0.75                     264.3879730397444        264.3146785002441        265.8605818530746        265.5920566707836        256.160620090079         260.49252755393263       255.0701821676179        250.5341886556584        249.91171035538082       243.39987295067513       260.3715526043438        243.84995952221888       235.24583612039692       252.74124155619162       264.24125733082315       264.32901930627736       235.10193526735412       265.4247152923433        265.62944533458847       255.25048742350776       234.32269677942404       254.39236063882512       250.23514002802509       249.3164983269261        242.43084075875987       243.06028922808503       235.1648323147278        234.60891035531444       264.50413335485337       264.544015652214         263.0416220103372        267.52799831816486       269.5492078822292        269.4532494516125        267.46231844080813       267.54541949676826       269.5750836635089        275.57450179369584       275.63109491221053       275.44811322944065       258.9306203596046
1                        262.6042250052947        262.53387314716105       264.0966667633134        263.84532893924614       254.19753084733054       258.8348552608563        253.5177333930383        248.40220064039522       248.26791089155773       241.7033013757066        258.74581055941826       242.514444195674         234.41844452501087       250.3295862317637        262.4737271347253        262.55744505756905       234.53781526527942       263.67453466819967       263.8642260953405        253.55723161081823       233.81530417248217       253.0228535445642        248.31142594109048       247.9575675887919        241.06042824904557       241.94887920818235       234.52174002393747       234.2070753777084        262.79565485449217       262.8352613427964        261.31363494852127       266.4452871535573        268.2103665777235        268.11823834089563       266.37723454200994       266.45977951635825       268.2312477042081        275.0205329439522        275.1057573616996        274.8958018640786        257.49122393745444
