% Model:              PicC_fullinst_conductivity.mph
% Version:            COMSOL 5.6.0.401
% Date:               Mar 21 2022, 07:22
% Table:              Table 1: Tsense - Tsense Eval
% Time (h)               Temperature (K), Point: 888Temperature (K), Point: 893Temperature (K), Point: 1116Temperature (K), Point: 1135Temperature (K), Point: 1205Temperature (K), Point: 1321Temperature (K), Point: 1332Temperature (K), Point: 1336Temperature (K), Point: 1568Temperature (K), Point: 1602Temperature (K), Point: 1673Temperature (K), Point: 1674Temperature (K), Point: 1781Temperature (K), Point: 1836Temperature (K), Point: 1837Temperature (K), Point: 2776Temperature (K), Point: 2936Temperature (K), Point: 3174Temperature (K), Point: 3175Temperature (K), Point: 3296Temperature (K), Point: 3300Temperature (K), Point: 3303Temperature (K), Point: 3403Temperature (K), Point: 3489Temperature (K), Point: 3555Temperature (K), Point: 3560Temperature (K), Point: 3568Temperature (K), Point: 3585Temperature (K), Point: 3708Temperature (K), Point: 3716Temperature (K), Point: 3832Temperature (K), Point: 3840Temperature (K), Point: 3997Temperature (K), Point: 4049Temperature (K), Point: 4056Temperature (K), Point: 4175Temperature (K), Point: 4183Temperature (K), Point: 888Temperature (K), Point: 893Temperature (K), Point: 1116Temperature (K), Point: 1135Temperature (K), Point: 1205Temperature (K), Point: 1321Temperature (K), Point: 1332Temperature (K), Point: 1336Temperature (K), Point: 1568Temperature (K), Point: 1602Temperature (K), Point: 1673Temperature (K), Point: 1674Temperature (K), Point: 1781Temperature (K), Point: 1836Temperature (K), Point: 1837Temperature (K), Point: 2776Temperature (K), Point: 2936Temperature (K), Point: 3174Temperature (K), Point: 3175Temperature (K), Point: 3300Temperature (K), Point: 3303Temperature (K), Point: 3403Temperature (K), Point: 3489Temperature (K), Point: 3555Temperature (K), Point: 3560Temperature (K), Point: 3568Temperature (K), Point: 3585Temperature (K), Point: 3708Temperature (K), Point: 3716Temperature (K), Point: 3832Temperature (K), Point: 3840Temperature (K), Point: 3862Temperature (K), Point: 3997Temperature (K), Point: 4049Temperature (K), Point: 4056Temperature (K), Point: 4175Temperature (K), Point: 4183
0                        283.00265285344767       283.00253084205247       283.00359938575804       283.0048666022525        283.01127647274643       283.00466926156696       283.0028791720981        283.0049319081071        283.0048757234357        283.0000074566038        283.00001408372106       283.0000009353076        283.00001112523955       283.00001562953497       283.00000925484085       283.0000099081079        283.0018603132909        282.9986896252998        282.9983700004481        283.0010031972839        283.00144907578886       283.0037719382895        283.003572846916         283.00371003772733       283.00304634342814       282.99814247069855       282.9979487069555        283.0024014911128        282.9978592306563        282.9976675142588        282.99770260765746       282.99900910320173       282.99849035309967       283.00269611114715       283.00264440574534       282.997505466513         282.99751154512796       283.0026529106849        283.0025309585932        283.003599040767         283.0048662722127        283.0112764754578        283.00466952986176       283.00287926986914       283.0049319092282        283.0048760154337        283.000007458816         283.00001408600735       283.00000093691244       283.000011128052         283.00001563242927       283.000009256837         283.00000990910405       283.0018603252463        282.99868970933034       282.99837004581576       283.00144908114396       283.0037719477293        283.00357285726744       283.00371004426927       283.00304634508615       282.9981420173487        282.99794803792446       283.0024014913339        282.99785924211744       282.9976675256383        282.9977023630557        282.9990088642552        283.001106280322         282.998490353235         283.00269611107484       283.0026444056406        282.9975053282742        282.9975114252645
1.5                      300.440257486515         300.80218707187015       297.03956435388204       297.31612109487446       386.977651806196         305.2976052037726        302.7782987191972        310.7296604332821        303.4459571896867        282.7950753846475        282.74492405580753       281.4898456855709        282.8574306943834        282.8334763954349        282.84524373977024       282.6763083050086        280.1341437203789        276.87274067812865       277.1978521073171        278.9756871652859        279.5788438624786        302.15904387784354       301.05822732633357       291.6031959552358        284.68666195910936       269.89545458430996       274.135856593747         286.35298451220723       268.5612664486622        272.3832248517446        273.41563615719025       270.11110371600194       262.6314630571212        280.3112683489649        280.4019580995758        270.68077041816855       267.9835073987953        300.4168116348275        300.771778911496         297.0341491239746        297.31043406441285       386.9775438546758        305.2978205145174        302.7781917194255        310.7294491751026        303.44354916276006       282.79467375307837       282.7445858548135        281.4894078321039        282.8569479858974        282.8332056633906        282.84487697716054       282.67599685669563       280.1191746580735        276.860424220935         277.182831106115         279.56916058508114       302.15666049712104       301.0564457414268        291.60213898756564       284.6863538035403        269.8922465853907        274.13156794046944       286.35271588420176       268.5601432970623        272.3817753715152        273.4145222148263        270.10974721666315       278.92591249767963       262.63145336772305       280.3111990983951        280.40188059788073       270.68000233453427       267.9826972288265
3                        302.4845237957137        303.704266323639         306.2775766026515        305.68856767159195       439.18941873608645       327.7076037136346        320.05623543723004       336.34740465199707       306.1142489554502        282.54731213982586       282.4055599747217        280.1249553590964        282.714380008079         282.61970639022917       282.72497499756963       282.2528402350446        279.3884153810453        274.45704817261316       276.0099667944825        275.99480003881047       279.11061524173516       304.42027177590774       304.46724794379054       291.424740674256         285.0042770294032        264.99659212668405       267.2945776759814        285.21925337473346       263.55964644829385       264.85248487408126       279.36005395086016       263.6392367287252        256.9024650378603        277.45354972181184       277.9197072174408        262.0058718389226        261.81468707111014       302.42841932528836       303.62737693964056       306.2689687441695        305.6781374841347        439.18890580094495       327.70607333151986       320.0533259297921        336.3463487846639        306.1058893398996        282.54558665372167       282.40426659535797       280.12235961590756       282.71213471505087       282.6187650254088        282.72291395140485       282.25178262763046       279.32901741539325       274.424775273737         275.96095032087226       279.06924982405627       304.4117704247904        304.4608894552399        291.42091877489105       285.0031806403668        264.98878608778045       267.28083114866257       285.2182911851436        263.5561731480181        264.84677774294045       279.3577470682896        263.6354945518365        276.55280462914885       256.90240945298535       277.4533315159742        277.9194452247656        262.0041769845559        261.81250080163596
4.5                      295.63568214912664       298.04325450523635       308.1152096651599        306.89743691027803       443.5866481655053        345.63082072167845       332.9103304183561        355.88421958020405       299.87278227163705       282.38234326845526       282.1453917878942        279.0539311268476        282.6643260150022        282.45469283523624       282.7427682467333        281.8697151069078        281.34698536010785       275.2946410697104        278.22495609538487       275.3088709473796        281.56205207598134       298.32965659877055       300.92321348815176       285.3967154053305        283.01324660658173       269.8858779548606        266.42305286636343       280.6536126801906        268.1927205166812        263.39444779630276       272.39939328444365       262.244331753737         254.1873365418038        271.9924041628648        272.4633475699425        265.7739677184053        260.434294926549         295.5742643206447        297.946067744358         308.1032359029739        306.8814622231832        443.58610950553003       345.62737002895          332.9036489781768        355.8820063095025        299.8599955237284        282.3787673742766        282.14279736573866       279.0475309800214        282.65947751352894       282.452813212445         282.73769388704727       281.8676990988824        281.24718137382575       275.24249065220033       278.1433385599698        281.4845330230227        298.3161249046128        300.9130431654391        285.39043921252187       283.0114100861671        269.8748103681236        266.39976453064384       280.65201977666595       268.187672922624         263.3847947888719        272.39627407826157       262.2384709558801        274.41311001640753       254.18717335062678       271.99206655446966       272.4629319161247        265.771822326048         260.43106974631155
6                        283.72642755625503       286.3528588874306        300.79810010147014       300.87241775672135       421.2631877731683        348.58570238904923       336.6012929561422        358.75175842816355       285.34358790650947       282.28781705042246       281.94546871121105       278.16342664674943       282.67767339013335       282.32986244262906       282.84278223652524       281.5340082375125        283.5171927290557        276.7254710219001        280.5048309527603        275.3450130629296        284.16116188540883       285.23916702630856       288.16610402042386       275.0233199733555        275.31381015389394       276.44661863242146       269.6886679140259        273.49144632449276       274.7502218442049        266.3394366285295        275.11544197516406       265.16116783877993       253.20025380005578       264.3480722790351        264.75487990461505       272.1969528074133        263.3421550972117        283.68351588522046       286.2640417168781        300.782516002493         300.85114024643497       421.2618744910271        348.5807037659104        336.5914944022801        358.7479784012068        285.3285483120299        282.2824743797831        281.94163235057994       278.15252455979123       282.6701340375328        282.3270051084162        282.8340234345061        281.5311043050414        283.3928151987716        276.6575744868712        280.3976998353285        284.05256315367          285.2226095743813        288.153404728303         275.01582754261557       275.31127964849964       276.43421442771694       269.65979705254136       273.48938503768943       274.744586592015         266.3278044951553        275.11189024613464       265.1544619038552        272.090635975516         253.20006715414107       264.3476160933076        264.75431604449244       272.19457141175974       263.33869704567195
7.5                      270.9406935444256        272.6665204326688        287.3559332333452        289.1006773203852        385.3357073654033        337.25914379932686       331.0751721361177        345.6532908605986        268.387707373465         282.10247068317597       281.65906178815897       277.08897473051604       282.6009137842405        282.14550692458107       282.80364187437806       281.13597723519365       282.2142311611133        276.04801716780156       278.69927833392717       274.4632479686305        282.5655520181807        269.8822500443135        271.91914814636516       264.1254484450624        264.67393106137024       271.593144890919         270.1306505035481        265.9885418973994        269.8853305597905        267.1209913126429        269.22064362061576       266.02754801001294       250.8850916991588        256.80041279022043       257.0559775598441        267.5668087660429        264.36875535890084       270.92195098852          272.60960459565837       287.33742765650635       289.076310314575         385.33373863579635       337.25310117400244       331.06360976824675       345.6482902069589        268.37290643138243       282.0956050821436        281.65391325922724       277.0743948752894        282.5911737656396        282.14150507663356       282.79168149015663       281.1319073413453        282.09149675859464       275.9677681971241        278.586953627831         282.4477365828039        269.8665824300475        271.9066087077026        264.11810612050317       264.6711533273404        271.57964742430084       270.10287863178183       265.9864547986982        269.8795798414095        267.1102970341852        269.21717121449956       266.0216431096805        268.4534628647488        250.88491790842133       256.7999050489105        257.0553779134308        267.5645548806285        264.3659219313289
9                        262.17058562969174       262.56521605899803       276.6290923167798        277.66843562235584       353.2538585995979        326.9177640344728        321.92967831686667       333.5466953268902        258.9894448807953        281.7128053977592        281.2064039546034        275.64224905965733       282.3146532022349        281.8458778011647        282.5152387473092        280.6069566506656        276.69121561398003       272.7910329963382        273.402746967176         272.1409307939843        276.83728347419043       260.37009393645064       261.9752229652285        257.32517198528313       259.3503629052466        264.0302692478584        263.8687653391857        261.7482053475556        262.44826430599807       261.6301861903112        261.631690312061         260.70362561853375       245.22794181784056       252.3541733662856        252.4122751203269        260.48831562528915       259.47815397970186       262.1568531049203        262.53815415597944       276.60914237790104       277.6440149270685        353.2521603368242        326.91117456516537       321.9176247455005        333.54170794585997       258.97645153275073       281.7041568424629        281.19918356935125       275.62519848327645       282.3029629822342        281.84004802655716       282.50085377195074       280.6005860201589        276.57977433469335       272.6907143734875        273.2899400401233        276.72267498428124       260.3575322116275        261.9648085128055        257.3184361190737        259.34796898403266       264.0139499490637        263.84435818981586       261.74637652794416       262.44192824466904       261.621084015025         261.62817722799434       260.69874196110027       263.72091759234223       245.22770763961216       252.3536716798409        252.41173488281856       260.4864296896765        259.4759149820008
10.5                     256.5095086400001        256.62588233042544       268.8409145481209        269.41125896146167       330.65389344546185       317.80028511788095       313.67490674408185       323.1081005350366        253.6806375227731        281.2541907137636        280.69329546849787       274.1524700169523        281.9661011225397        281.5014434790701        282.16652691750915       280.02025448002746       272.3263187115237        270.0285450782788        270.19262254813526       269.8415781185637        272.7606639709961        255.26392049754256       256.85384417754676       253.45477118903145       256.9711773687834        260.9522607410637        261.07316442977003       259.80576651443704       259.55029595753854       259.30644246619516       258.7684435328806        258.5324203518032        241.74224718236488       250.3542242754857        250.37126443120417       257.8986839520825        257.5821829202429        256.47235675177495       256.58433832636723       268.81901143409556       269.3861797510796        330.6522867874541        317.79233800162217       313.66195650211085       323.1030625963666        253.66699348128301       281.2427491671703        280.68271234972855       274.13241675124357       281.95158943309343       281.4927309899724        282.14917389802207       280.01003135730645       272.1982555076585        269.8929492756694        270.0527930004463        272.6297448720823        255.25072489032655       256.84303419174034       253.4475035675088        256.9687027691565        260.9305627326343        261.0475405435565        259.80376119689646       259.54158742799564       259.2964757700138        258.76388319293926       258.5272048154381        259.9183048344386        241.74193715708134       250.35361734452295       250.37064288844365       257.8962518407642        257.57962756789317
12                       252.88602042748738       252.92801632285048       263.17713256111426       263.4803287101628        314.13200975135925       309.850351443939         306.3706537421972        314.1830368469307        250.5682778927518        280.75703883540746       280.14542467334263       272.67058379294593       281.5804655885176        281.12884864287673       281.7853515015931        279.3961916149344        269.05779626276          268.1876367045998        268.2444174539315        267.8939067638537        269.88330657413104       252.3250547566296        253.95916231974533       251.224341661188         255.88189809926777       259.62171696315687       259.78407804954725       258.92928560910394       258.3729887176103        258.2951244440376        257.65809723662875       257.6294079616549        239.67911099553243       249.46865678147816       249.47406260890358       256.93982201559555       256.84124263332774       252.80711485685882       252.84728377479973       263.15183213533663       263.4526661965174        314.1302895089377        309.83994525293514       306.3557331467689        314.17759833265023       250.55056289465492       280.74155809268433       280.1300884214997        272.6464747633868        281.56192447161766       281.1161553176866        281.7641086006524        279.3805233458604        268.89173134605073       268.00877338184887       268.06405543869766       269.7216555394059        252.3077517702348        253.94512649859723       251.21487638724162       255.87881267034052       259.5933835393886        259.7537997391138        258.92673301475963       258.36098387363995       258.2825865413546        257.6519028333836        257.62288151539076       257.0081693723755        239.67870766774183       249.46785754624815       249.47325742858695       256.93643405557384       256.8378388744234
13.5                     250.4732288229289        250.49021307253642       258.9323668598532        259.08893841800466       301.44389969864164       302.8708415412894        299.89512880751516       306.4694897249639        248.6164782331249        280.2386111695788        279.57871893793396       271.2125745898892        281.1720003586642        280.7386493408081        281.38490502824277       278.74975828130147       266.50866861628657       266.97057185342214       266.9967580691303        266.26013316236447       267.70895499363627       250.50765525840941       252.1774262203405        249.85782273611665       255.33458545831374       258.9649433544285        259.12033779609555       258.5071286509976        257.83538453016774       257.80675881814324       257.1814727474319        257.21640680373014       238.41885601433285       249.0544480536405        249.0555528139394        256.5541277323313        256.52692436931795       250.34805273342533       250.3638475119274        258.9024151965347        259.0570593746622        301.4418562858831        302.85701630210895       299.8772027546943        306.4631924399369        248.59241047483715       280.2180639671058        279.5575349152325        271.1834927465111        281.1484214654644        280.721117399052         281.3589786122708        278.7273902926715        266.29626414463934       266.74961450538956       266.7751935890087        267.51135997114926       250.48423186378824       252.15831010282403       249.84496716848463       255.33054443265075       258.93008589655057       259.08439023005343       258.5038528420179        257.8199888483539        257.79115224677423       257.17351538960787       257.20824477126524       254.78224971250378       238.41834277991424       249.05342807565205       249.05453000931024       256.54972969397454       256.5225518485764
15                       248.83545732347574       248.84245815467344       255.70529159096742       255.78780456297926       291.45136748357925       296.7304627813759        294.15691850341346       299.7738842601287        247.35376845394748       279.70736757413215       279.0012800694144        269.78520320079576       280.74773421216815       280.3361883689688        280.9712788099574        278.08916259096117       264.4477501542891        266.14369032343416       266.15881162455935       264.86980828223665       265.9755883550681        249.34685861417103       251.03776992676404       248.99286911800152       255.04040282198235       258.6031595480152        258.745757668206         258.2938293877142        257.56442485305826       257.5497577587639        256.9587809047625        257.0121677363249        237.64177950091064       248.85449104067834       248.8537741073764        256.3887671613942        256.3846427016874        248.66796995578937       248.67387686879852       255.6699259605802        255.75070075955324       291.4488055213769        296.71247871101326       294.1351587565103        299.76625871417895       247.32238158429175       279.68098693798964       278.97345296534036       269.7504730470523        280.71836408088564       280.31318945378484       280.9400702172681        278.05916219777157       264.18911065491346       265.8871947910394        265.9020137920989        265.7426944853489        249.316582451538         251.0127541797374        248.97606478833893       255.0352629445089        258.56271367879987       258.7045549274283        258.28980485387507       257.5460394065725        257.53129779127545       256.9492205399337        257.00244340889765       253.08113816090952       237.64114985542238       248.85326177038516       248.85254314632712       256.38348445035876       256.3793978819806
