% Model:              PicC_fullinst_union.mph
% Version:            COMSOL 5.6.0.401
% Date:               Jun 18 2022, 12:23
% Table:              Table 1: Tsense - Tsense Eval
% Time (h)               Temperature (K), Point: 277Temperature (K), Point: 282Temperature (K), Point: 446Temperature (K), Point: 447Temperature (K), Point: 499Temperature (K), Point: 594Temperature (K), Point: 696Temperature (K), Point: 882Temperature (K), Point: 883Temperature (K), Point: 1236Temperature (K), Point: 1237Temperature (K), Point: 1455Temperature (K), Point: 1456Temperature (K), Point: 1688Temperature (K), Point: 1798Temperature (K), Point: 1800Temperature (K), Point: 1853Temperature (K), Point: 1996Temperature (K), Point: 2017Temperature (K), Point: 2020Temperature (K), Point: 2059Temperature (K), Point: 2060Temperature (K), Point: 2090Temperature (K), Point: 2092Temperature (K), Point: 2136Temperature (K), Point: 2137Temperature (K), Point: 2213Temperature (K), Point: 2214Temperature (K), Point: 2339Temperature (K), Point: 2352Temperature (K), Point: 2359Temperature (K), Point: 2490Temperature (K), Point: 2491Temperature (K), Point: 2696Temperature (K), Point: 2707Temperature (K), Point: 2746Temperature (K), Point: 2871
0                        259.91882367775423       259.9161793598642        271.8566904348           271.71539265560966       273.3880111105287        279.9999975821677        279.96544486847404       273.11882848330856       273.0716773496122        259.89363671848224       259.8945238596166        279.9999982957197        280.00000688122935       279.9997620930201        260.0013993922895        260.00139171030725       279.9651984947874        273.99989647284565       260.0013674067814        260.001323170729         260.0017601029885        260.00179681817735       260.00110775085136       260.00109116270886       260.0012972523088        260.00124938077624       260.0012409037188        260.0011134382186        260.1033845746691        259.99863742043243       259.99867190513305       260.0000113422416        259.99947357640593       265.05451982360455       265.1005336754611        265.5611314152101        274.0015473474836
0.25                     268.6313278527953        268.3940433856512        264.8433266604038        264.6426505860533        271.8043792526461        277.0998570332641        277.2269601950215        271.7116042526082        271.69297547629856       270.32797596583015       270.175067007734         277.1225491689188        277.1238835212566        277.39385998276447       261.30689807414166       260.86302741791246       277.2438763875993        264.68906601661956       260.5033502163665        260.4713637734545        261.1275529295064        260.9871123036907        259.29809523199316       258.92478726926396       259.84202921575377       259.68113614837023       258.8408158032171        258.68841435124403       278.2420681929312        257.04873792816113       256.8854314289123        254.54839739027173       254.4377135131875        263.85399325191486       263.80731125407505       262.4054631375761        275.1885099833063
0.5                      268.8427075403364        268.526230613484         265.01355612643306       264.6852300868446        271.66702914924724       275.3940331298269        275.36727228153063       271.55189372474666       271.52349770958904       269.4450805585611        269.23622063534725       275.408550931738         275.40024680755766       275.52719334511886       261.12030319283514       260.32688525232254       275.37211587555686       262.6128706350254        259.4311497650917        259.34641610892993       260.3559746978546        260.1003733057932        257.4866188457474        256.8216477425943        258.2203751796519        257.93145113030846       256.4577053101775        256.18768230394426       278.8424418573159        255.3944723361832        255.16143744008195       250.05431584689416       249.8548665088892        265.0859235503985        265.03872462575805       263.30957312750724       275.51437108402206
0.75                     268.3604910060668        268.1007767017499        264.8953312649763        264.58298563858256       271.0861804290607        274.0052642233881        273.9038784925147        270.9515339908693        270.93211267480575       268.3659030127431        268.21931501727033       274.00484950448765       273.99453767019344       274.0480090763183        260.4530397787838        259.58028442392924       273.89382519838847       261.15911536714356       258.2425963135033        257.9692763940596        259.1986687532555        258.9567731119878        255.6406116581579        254.93769431772546       256.46341244857007       256.19828614786746       254.13851682665737       253.89425048229262       278.85161399653407       253.90036836057894       253.74199510372173       246.5852528037209        246.41028749578592       265.7705812671366        265.72957964410824       263.7993539322788        275.74409010399677
1                        267.6080489989626        267.4747159506159        264.5687196592832        264.3479103450218        270.30295308674295       272.7611173777672        272.6234081260821        270.1526772117405        270.1524765534251        267.26929885881367       267.24642831585504       272.7434486666464        272.73602992009546       272.7483769031118        259.57691881571617       258.77840847363825       272.59923886360275       259.955241670746         257.0698121299594        256.52077129366944       257.90157326822566       257.75214740971813       253.82358899098838       253.22996056066134       254.69295861977577       254.54427062555135       251.91580294052133       251.78409614136757       278.66483196659647       252.48239298545153       252.48174902757805       243.6862503792015        243.60552656726875       266.16456711857546       266.13421627229866       264.05857663005804       275.92708733128575
1.25                     266.8418240151473        266.8468919263262        264.2021242433101        264.0854383068665        269.50583720178884       271.54626182223126       271.3763511738395        269.3408714705908        269.36253024947894       266.19610827264654       266.31190618362666       271.51146782508215       271.50879375013          271.48219668223646       258.6970146739333        258.0130944691501        271.3398649202669        258.79560337496696       255.94963598988673       255.10490269490333       256.6351613046964        256.6001242611819        252.06278140838103       251.6153358031953        252.97961923082144       252.9735048581839        249.77633788147193       249.78112412974613       278.47328132794405       251.11409074703275       251.29032158123337       240.94452230556502       240.97812906869322       266.4997256176181        266.4806773340606        264.2718559710173        276.0985306784414
1.5                      266.00896663348874       266.21054353746155       263.64223116677135       263.69051949587674       268.6415785712715        270.4730120268441        270.2908279711126        268.46646529071626       268.5227404174659        265.23610819639475       265.56285365573297       270.421714960651         270.4327368509606        270.37773651959674       257.7988211397682        257.42453546974815       270.25072169887864       257.8498166204464        255.08378808063242       253.84681194093983       255.51708570237025       255.70240280388626       250.57373992956065       250.45083702606658       251.54239378719316       251.8052015565379        248.03933080248933       248.29631417829998       278.25867733589007       249.98592823145418       250.4315907951199        238.96312107120974       239.20817701709956       266.5504892699511        266.5458945420246        264.26302683032753       276.2141179682426
1.75                     265.1761092518302        265.57419514859686       263.0823380902325        263.295600684887         267.7773199407542        269.39976223145703       269.20530476838564       267.5920591108417        267.68295058545283       264.27610812014296       264.8138011278392        269.33196209621985       269.3566799517912        269.27327635695696       256.90062760560323       256.8359764703463        269.16157847749037       256.9040298659259        254.21794017137813       252.5887211869764        254.39901010004414       254.80468134659057       249.08469845074026       249.28633824893785       250.1051683435649        250.63689825489192       246.30232372350667       246.8115042268539        278.04407334383615       248.85776571587562       249.57286000900643       236.98171983685447       237.4382249655059        266.60125292228406       266.6111117499886        264.2541976896378        276.32970525804376
2                        264.41146323650224       265.0139418220199        262.4604684294168        262.855419560454         267.01169024910934       268.49695415479346       268.2954901395221        266.8207733483785        266.9515633262311        263.5001579187362        264.2673477107863        268.41606674202274       268.46293998192795       268.3481485501523        256.1222310308884        256.4863086148217        268.26010232180585       256.1594159051536        253.6590691188192        251.6007673612902        253.59373191598328       254.28233853230844       247.98983925897613       248.61542935428193       249.10195072085256       249.97855852291534       245.11952043229704       245.9489183216815        277.8907475574337        248.0539738116529        249.08259276063484       235.71975174881624       236.4454835559453        266.45499179535574       266.47960241134484       264.09006059833575       276.3936829755362
2.25                     263.6687019234152        264.47810257581915       261.8187144125799        262.40071662967495       266.2777043299861        267.64883001812916       267.44204925050616       266.08257238909994       266.25495557891924       262.7832576517485        263.78589550179487       267.5559512387286        267.6276939541447        267.48055712504953       255.38226970425546       256.21328577951857       267.4188366277245        255.47934553772922       253.1986874744779        250.69948334677537       252.88881058927203       253.88043092218453       247.02144816842335       248.10288215487026       248.23797868786977       249.48383376416518       244.11452599507518       245.28596465835315       277.75708206163506       247.35425186859788       248.71054209761982       234.68860413889402       235.70209975926272       266.2455179099068        266.2849759981285        263.87609503360426       276.4411024537862
2.5                      262.92594061032815       263.9422633296184        261.176960395743         261.94601369889597       265.54371841086294       266.80070588146486       266.5886083614903        265.3443714298213        265.5583478316074        262.0663573847608        263.3044432928035        266.69583573543446       266.79244792636143       266.6129656999468        254.64230837762258       255.9402629442154        266.57757093364313       254.7992751703048        252.73830583013668       249.79819933226054       252.18388926256074       253.4785233120607        246.05305707787056       247.5903349554586        247.37400665488698       248.989109005415         243.10953155785336       244.6230109950248        277.62341656583635       246.65452992554282       248.33849143460478       233.6574565289718        234.9587159625801        266.0360440244579        266.0903495849121        263.6621294688727        276.4885219320361
2.75                     262.1831792972411        263.40642408341773       260.53520637890614       261.491310768117         264.80973249173974       265.95258174480057       265.73516747247436       264.6061704705428        264.86174008429555       261.3494571177731        262.8229910838121        265.8357202321403        265.95720189857815       265.74537427484404       253.9023470509897        255.66724010891224       265.73630523956183       254.11920480288043       252.2779241857954        248.89691531774577       251.47896793584945       253.0766157019368        245.08466598731778       247.07778775604686       246.5100346219042        248.49438424666485       242.1045371206315        243.96005733169645       277.48975107003764       245.9548079824878        247.96644077158976       232.6263089190496        234.21533216589748       265.82657013900894       265.89572317169575       263.4481639041412        276.5359414102861
3                        261.4404179841541        262.87058483721694       259.89345236206924       261.036607837338         264.0757465726166        265.1044576081363        264.8817265834585        263.8679695112642        264.1651323369837        260.6325568507854        262.3415388748207        264.97560472884624       265.12195587079486       264.8777828497413        253.16238572435682       255.3942172736091        264.8950395454805        253.43913443545605       251.81754254145417       247.99563130323094       250.77404660913817       252.67470809181293       244.11627489676493       246.56524055663516       245.6460625889214        247.9996594879147        241.09954268340965       243.29710366836812       277.356085574239         245.25508603943277       247.5943901085747        231.59516130912738       233.47194836921489       265.61709625356          265.70109675847937       263.23419833940966       276.5833608885361
3.25                     260.7334076138268        262.33011796310336       259.19316573353075       260.4966069341136        263.45066318229107       264.4122798984848        264.18705121923324       263.24854363484275       263.57492120721184       260.05195063556033       261.9370603331863        264.2803509161939        264.4495962068973        264.17815279581157       252.49008435435215       255.17556959571652       264.2198592003179        252.82602630372992       251.46466263032605       247.26502494809716       250.30096571945506       252.49168199139282       243.41427380530024       246.29530606143624       245.1063514576951        247.8129880781441        240.51439016583146       243.03972818240058       277.26506283075275       244.7884173023631        247.4181803206505        231.05099751467571       233.19803795899475       265.2461325051601        265.34271400913644       262.87472309226195       276.5907218320545
3.5                      260.0291505595428        261.78929469776784       258.48837128599723       259.95003690968906       262.83396678980574       263.7321122161576        263.50460299177155       262.6382650791895        262.9929040855255        259.48184094351404       261.5385098263643        263.59779372921776       263.7897810412512        263.4914580857422        251.8229937348816        254.96110955545544       263.55746971940835       252.2180751883961        251.1200618364436        246.54756312850716       249.84573974339125       252.325512788323         242.73278842060236       246.04405609311357       244.59161289150182       247.65004102813865       239.96157127091686       242.81358781406612       277.1773241677695        244.33969687886167       247.25705298319394       230.54433819558957       232.96028347941947       264.8627318083558        264.97171976167164       262.5040415911767        276.5949977154923
3.75                     259.3248935052589        261.2484714324323        257.7835768384637        259.4034668852645        262.2172703973203        263.05194453383035       262.8221547643099        262.0279865235363        262.4108869638391        258.91173125146776       261.13995931954224       262.91523654224164       263.12996587560514       262.80476337567274       251.15590311541112       254.74664951519438       262.89508023849874       251.61012407306228       250.77546104256115       245.8301013089172        249.3905137673274        252.1593435852532        242.0513030359045        245.79280612479093       244.07687432530855       247.48709397813326       239.4087523760022        242.58744744573167       277.0895855047862        243.8909764553602        247.09592564573742       230.03767887650338       232.7225289998442        264.47933111155146       264.60072551420683       262.13336009009146       276.5992735989301
4                        258.620636450975         260.7076481670968        257.07878239093014       258.85689686084004       261.6005740048349        262.3717768515031        262.1397065368482        261.417707967883         261.8288698421528        258.3416215594214        260.7414088127203        262.23267935526553       262.47015070995906       262.1180686656033        250.4888124959406        254.53218947493332       262.2326907575892        251.00217295772848       250.43086024867873       245.1126394893272        248.9352877912636        251.99317438218338       241.3698176512066        245.54155615646826       243.5621357591153        247.32414692812785       238.85593348108762       242.36130707739719       277.0018468418029        243.4422560318588        246.93479830828085       229.5310195574172        232.48477452026893       264.0959304147471        264.2297312667421        261.76267858900627       276.6035494823679
4.25                     257.91637939669107       260.1668249017613        256.3739879433966        258.3103268364155        260.98387761234954       261.6916091691759        261.45725830938653       260.8074294122298        261.2468527204665        257.7715118673751        260.34285830589823       261.5501221682894        261.81033554431303       261.43137395553384       249.82172187647012       254.31772943467226       261.57030127667963       250.39422184239464       250.08625945479628       244.3951776697372        248.48006181519978       251.8270051791136        240.68833226650875       245.29030618814562       243.04739719292206       247.1611998781224        238.30311458617297       242.13516670906273       276.9141081788196        242.99353560835735       246.7736709708243        229.02436023833104       232.24702004069366       263.71252971794274       263.85873701927727       261.391997087921         276.6078253658057
4.5                      257.2121223424071        259.62600163642577       255.66919349586308       257.76375681199096       260.36718121986416       261.01144148684864       260.7748100819249        260.19715085657657       260.66483559878014       257.2014021753288        259.94430779907617       260.8675649813133        261.15052037866695       260.74467924546445       249.15463125699958       254.10326939441117       260.9079117957701        249.7862707270608        249.74165866091383       243.67771585014725       248.02483583913596       251.66083597604378       240.0068468818109        245.03905621982295       242.53265862672882       246.99825282811702       237.75029569125837       241.90902634072827       276.82636951583635       242.54481518485588       246.61254363336778       228.51770091924487       232.00926556111838       263.32912902113844       263.48774277181246       261.0213155868358        276.6121012492435
4.75                     256.539666475396         259.0590094843699        254.92672463953932       257.11392453441823       259.82800238392          260.43305656616707       260.19546461617017       259.6684150434713        260.1599973254263        256.71123430153494       259.5938503089035        260.29300100786827       260.59605353670315       260.1677089866319        248.49983968667655       253.77442161530408       260.3523344551436        249.1125676714294        249.3111998510566        243.04306179418023       247.6623109639563        251.55637178308228       239.47515590069736       244.7891304556054        242.16261409802243       246.92493415197305       237.44638035822126       241.86352281822238       276.77630523908664       242.42237708754107       246.51663932394973       228.9606908445162        232.10464224803889       262.80412789258685       262.9696470206157        260.50747811666236       276.60321887299966
5                        255.86965973873953       258.4900019668416        254.18135433373916       256.45613963808006       259.29479346976245       259.8625103229847        259.6240594861386        259.1459591470326        259.6611028886519        256.2272230511401        259.24709664481463       259.7267540024371        260.0496999697289        259.59918902501187       247.845995312895         253.43676440147374       259.8049831235891        248.43380080885655       248.8741287889176        242.414785078963         247.3069253530478        251.45665972758          238.95500115619097       244.53930667338113       241.80371300733609       246.8585180977084        237.1616340349299        241.831930826078         276.72914241007607       242.32506723284112       246.4257580879288        229.47681686909803       232.22567463280888       262.26822157635655       262.44022242326906       259.98261566096477       276.5933231291439
5.25                     255.19965300208304       257.9209944493133        253.43598402793904       255.79835474174186       258.7615845556049        259.2919640798023        259.052654356107         258.6235032505939        259.1622084518775        255.7432118007453        258.90034298072584       259.1605069970058        259.5033464027546        259.0306690633918        247.19215093911347       253.0991071876434        259.25763179203466       247.75503394628376       248.43705772677856       241.78650836374575       246.95153974213932       251.35694767207772       238.43484641168453       244.28948289115692       241.44481191664974       246.79210204344378       236.8768877116386        241.8003388339336        276.6819795810656        242.22775737814118       246.33487685190795       229.99294289367984       232.34670701757886       261.7323152601263        261.9107978259225        259.4577532052671        276.5834273852883
5.5                      254.5296462654265        257.351986931785         252.69061372213886       255.1405698454037        258.2283756414473        258.72141783661993       258.4812492260754        258.1010473541552        258.6633140151032        255.2592005503505        258.553589316637         258.59425999157463       258.9569928357802        258.46214910177184       246.5383065653319        252.76144997381306       258.7102804604802        247.07626708371095       247.9999866646395        241.15823164852853       246.5961541312309        251.25723561657546       237.91469166717815       244.0396591089327        241.0859108259634        246.7256859891791        236.59214138834733       241.76874684178924       276.63481675205503       242.13044752344123       246.24399561588703       230.50906891826165       232.46773940234885       261.196408943896         261.38137322857585       258.9328907495695        276.57353164143257
5.75                     253.85963952877          256.7829794142567        251.9452434163387        254.4827849490655        257.69516672728975       258.15087159343756       257.9098440960438        257.57859145771647       258.1644195783288        254.77518929995574       258.2068356525482        258.0280129861434        258.41063926880594       257.8936291401518        245.8844621915504        252.42379275998266       258.16292912892567       246.39750022113813       247.56291560250048       240.52995493331127       246.24076852032238       251.1575235610732        237.39453692267173       243.7898353267085        240.72700973527702       246.65926993491448       236.30739506505603       241.7371548496448        276.5876539230445        242.0331376687413        246.15311437986617       231.0251949428435        232.58877178711887       260.6605026276658        260.8519486312292        258.4080282938718        276.5636358975769
6                        253.18963279211349       256.2139718967284        251.19987311053856       253.82500005272738       257.1619578131321        257.5803253502552        257.3384389660122        257.0561355612778        257.66552514155444       254.29117804956093       257.86008198845934       257.4617659807122        257.86428570183165       257.32510917853176       245.23061781776886       252.08613554615232       257.6155777973712        245.7187333585653        247.12584454036144       239.90167821809402       245.8853829094139        251.05781150557092       236.87438217816535       243.5400115444843        240.3681086445907        246.5928538806498        236.0226487417647        241.7055628575004        276.54049109403394       241.93582781404135       246.06223314384525       231.54132096742532       232.70980417188886       260.12459631143554       260.3225240338826        257.8831658381742        276.5537401537212
6.25                     252.1197213705267        254.8227341680644        250.06931604435462       252.44586933038178       256.1498066296605        256.7208726253064        256.49568105234835       256.05504375911875       256.6017227010781        253.21567368483176       256.40831602500276       256.6147004001798        256.99207751609003       256.49302147831753       244.1098629817059        250.35417370443184       256.76127647929945       244.38988290999478       245.40553053973426       238.76099747991964       244.70165374539374       249.48083916417016       235.73256286486205       241.85586128043568       239.19056269211046       244.9710920617704        234.9050673876513        240.1671351113403        276.2631114587828        241.2528480577237        244.99039466534924       230.29676417846386       231.51499010342164       259.22429752283125       259.3985949939847        256.94629160384557       276.436631944539
6.5                      251.01901176853212       253.36817336434396       248.90909428109657       251.01118502308736       255.10077028087056       255.83917011364176       255.63202522900897       255.01709038586668       255.49441454719704       252.09461618623928       254.8714488626076        255.74600791337772       256.0947740271082        255.64063542434866       242.95314959553463       248.51483116153108       255.8833357756012        243.01096705255028       243.58638912093514       237.58085455954185       243.45413069460588       247.7900973909303        234.54286679926165       240.06124808005387       237.94996978595975       243.22954715141915       233.723346240993         238.51266021408188       275.96800195189314       240.52476363529655       243.84300893956035       228.91661051110685       230.2188376961382        258.29593548434195       258.4442836668789        255.97768677578662       276.311266895731
6.75                     249.9183021665376        251.91361256062353       247.74887251783852       249.57650071579286       254.0517339320806        254.9574676019771        254.7683694056697        253.97913701261461       254.38710639331597       250.97355868764677       253.33458170021245       254.87731542657568       255.1974705381264        254.78824937037976       241.7964362093634        246.67548861863028       255.0053950719029        241.6320511951058        241.76724770213605       236.40071163916414       242.20660764381796       246.0993556176905        233.35317073366116       238.26663487967207       236.70937687980907       241.4880022410679        232.54162509433476       236.85818531682347       275.67289244500347       239.79667921286938       242.69562321377146       227.53645684374987       228.9226852888547        257.3675734458526        257.48997233977315       255.00908194772762       276.185901846923
7                        248.81759256454302       250.45905175690314       246.58865075458047       248.14181640849844       253.0026975832906        254.07576509031244       253.90471358233037       252.94118363936252       253.27979823943494       249.85250118905427       251.79771453781734       254.00862293977357       254.3001670491446        253.93586331641086       240.63972282319216       244.83614607572952       254.12745436820464       240.2531353376613        239.94810628333695       235.2205687187864        240.95908459303007       244.40861384445066       232.1634746680607        236.4720216792903        235.46878397365836       239.7464573307167        231.35990394767651       235.2037104195651        275.3777829381138        239.0685947904422        241.54823748798253       226.1563031763929        227.62653288157122       256.4392114073633        256.53566101266733       254.04047711966865       276.06053679811504
7.25                     247.71688296254845       249.0044909531827        245.42842899132242       246.707132101204         251.95366123450063       253.19406257864782       253.0410577589911        251.90323026611046       252.1724900855539        248.7314436904618        250.2608473754222        253.13993045297153       253.40286356016279       253.08347726244196       239.48300943702088       242.99680353282872       253.24951366450637       238.87421948021677       238.12896486453783       234.04042579840868       239.7115615422422        242.7178720712108        230.97377860246024       234.6774084789085        234.22819106750762       238.00491242036546       230.1781828010182        233.5492355223067        275.0826734312241        238.34051036801506       240.40085176219364       224.77614950903595       226.33038047428775       255.51084936887398       255.5813496855615        253.07187229160965       275.9351717493071