% Model:              PicC_fullinst_radfix.mph
% Version:            COMSOL 5.6.0.401
% Date:               Mar 14 2022, 22:03
% Table:              Table 1 - Tsense Eval
% Time (h)               Temperature (K), Point: 611Temperature (K), Point: 627Temperature (K), Point: 635Temperature (K), Point: 643Temperature (K), Point: 658Temperature (K), Point: 662Temperature (K), Point: 771Temperature (K), Point: 795Temperature (K), Point: 839Temperature (K), Point: 867Temperature (K), Point: 889Temperature (K), Point: 893Temperature (K), Point: 907Temperature (K), Point: 931Temperature (K), Point: 972Temperature (K), Point: 984Temperature (K), Point: 1283Temperature (K), Point: 1314Temperature (K), Point: 1325Temperature (K), Point: 1483Temperature (K), Point: 1501Temperature (K), Point: 2415Temperature (K), Point: 2561Temperature (K), Point: 2621Temperature (K), Point: 2667Temperature (K), Point: 2714Temperature (K), Point: 2753Temperature (K), Point: 2796Temperature (K), Point: 2993Temperature (K), Point: 3083Temperature (K), Point: 3142Temperature (K), Point: 3508Temperature (K), Point: 3515Temperature (K), Point: 3534Temperature (K), Point: 3550Temperature (K), Point: 3558Temperature (K), Point: 3566
0                        283.0052703858851        283.00540733355285       283.0055676079487        283.00586359127846       283.00279331526764       283.00279383341143       282.99959360840285       282.99449333027354       282.9947671470759        282.9946587637047        282.99476970798486       283.00151548027253       283.0009903993558        282.9948510710782        282.99588449306805       282.99548966215775       282.99993948270406       282.9997032181706        282.9996591711649        282.995790224136         282.9987121427138        283.0000713245182        283.0001522566983        283.00015535302674       283.00015296504824       283.0002228717838        283.0001573091751        283.00011972218556       283.00165937152855       282.9982384172755        283.0019339059379        283.00140630258346       282.99563546599353       282.99715392590775       283.0026969471406        283.0028911982212        283.0030886767405
1.5                      273.1656310452565        274.9198606011905        276.06754036028656       278.04929436304633       287.94788693707847       287.7865550274478        264.4241408093585        262.3472516455406        270.03644293257184       273.80625287737644       270.77083390183657       279.5982704366968        275.77500125887786       270.87424492563514       270.80544544353586       269.79651735851536       281.9326390181677        282.00322014601676       282.24880072028566       277.8242308360039        290.867281724322         280.038724348079         267.1084642012307        281.50805998655835       281.17608942402467       282.57463314291647       281.98512300353633       282.0449021576646        283.2561984405089        265.60921773341613       281.5478071776526        281.02985673381176       277.72069865442086       269.8211816490946        280.82659954860475       271.86834451762877       273.9203638584784
3                        262.5325435781622        278.36825261121004       279.548366115943         281.61471386522066       287.9092984634408        287.78073199326764       270.6479745899858        269.94943581330335       278.16665305627095       282.51698269862584       282.7911837148856        296.0989965654322        292.03986179668124       285.2640936305812        278.64998287052526       277.54280123967214       286.73388845565466       293.365000724329         293.7064594957768        283.636651156734         322.9952403618173        277.2866067278798        258.2923775244629        279.736169530544         279.10975592136305       281.64243583586244       280.66411797254403       280.71041924484433       281.6975685444277        259.6846460904549        279.6657556320337        278.82875808432163       285.31878293362394       263.73279701875765       281.79767753658905       264.4425024628842        266.0952703682478
4.5                      259.89636211493854       273.5744347656586        278.69597645282903       276.9046109382584        287.7936213831919        287.69074870273533       275.4655117757029        275.2350806287503        282.24180174774256       287.3360321560349        292.4565329783407        304.3709095952876        300.4158790071997        298.1653643738096        291.75588047321384       291.31031030854797       295.4639502379401        308.4590557745349        305.48102862491044       293.0504638990497        345.2738690032167        275.3270344878022        252.67521086673278       278.3227069181818        277.49857845931916       280.59231576622193       279.5030131920301        279.5036369930787        280.3174532739654        258.27501675905086       278.6697071018814        277.5375122521595        296.08483002348885       270.78154781760503       266.49785018127614       262.57330359328614       264.23487774384216
6                        261.7518955444271        266.79316002123045       267.0347484229006        267.2585472587428        287.64030114905245       287.60529462666625       276.1641059309064        276.1121106531642        281.20952242050294       288.04137313153814       294.00097204972786       305.78693806978424       303.7556578571118        305.36678100348126       301.9598038170748        301.56524661654055       306.72472416911444       320.2284449860183        315.56719864300794       304.67652510358255       360.5116259146032        273.92006000718595       248.52419076744857       277.1502214309609        276.23767506910764       279.37464909885006       278.4291044767741        278.42902156432444       278.55686358703946       256.79292581156847       277.74395458749865       276.6864597898232        307.2967043798905        264.87108731460967       275.14965134011175       265.026008583126         263.720495442589
7.5                      263.8613793309342        266.4944801126916        261.7160369099527        263.42900488891877       287.45037212054666       287.4499252016957        261.7079949856509        261.6950016764673        264.8065153990516        274.3258107857244        276.3921672248711        285.96177964500566       283.9305316037274        285.13342000576887       287.8340161321743        287.74636647970766       307.840195515649         317.2500185086657        313.67498731280597       298.38353062207915       339.494719908027         272.48962174748397       245.15973879421657       275.80004785105154       274.86620160805995       277.9454735999476        277.16021095302324       277.2535427059781        276.6896134299588        254.17015253871202       276.1797187676945        275.5660086914136        300.0768436807222        264.99230568550195       263.1088675230192        267.14693806397776       262.60175261470175
9                        257.7363172002151        259.3759354037013        259.2437475766484        261.31547242544633       287.2225838423973        287.228018212342         248.72848057189458       248.72051423152877       251.15179929100586       263.02006948621624       259.6663484046614        266.92015541699885       264.3553370622599        264.5941922022297        269.0109955608388        268.9867609862018        298.18607250421553       304.17605205586955       302.4222406727322        283.07117483485945       305.89710049766813       270.96283694972453       242.44045977507258       274.23814682251907       273.35229506432347       276.4570406728878        275.6722562468501        275.97127013274053       275.0392498003101        250.9728475597943        274.12739369176745       274.26714980648035       284.4991202693182        258.1015701946296        258.44575173295027       260.7888147377012        260.8844322201732
10.5                     255.82590565168192       257.13934503660244       258.15476742699155       260.23070703411383       287.00754712863386       287.0144156042559        244.21292983472537       244.20804598366          246.39811396079796       259.4909335676442        253.09032352874783       259.5389190057523        256.5939989247131        256.6891887203229        260.66098934271196       260.6486566569404        289.61749336649643       293.52035000381113       292.8638200258991        273.16486723895537       286.7574521997783        269.51332181341235       240.26394865332097       272.64839385291094       271.86208880419076       274.9989459989587        274.1154192261371        274.6751292963436        273.63150748178873       248.6856287669152        272.19116470475956       273.05594547124576       274.3876665038109        255.9904897193189        256.84238972359975       258.7108015412274        259.92609077308526
12                       255.05921232433505       256.2146954136055        257.5751244003175        259.58816472045066       286.8241345269286        286.83161718839676       242.24192768468828       242.2385336969948        244.30871898269106       258.0124448726422        249.7251665257127        255.71864718168243       252.5548894108511        252.56253495931784       256.0186874791737        256.0098106814347        282.31300247192314       284.85546080110186       284.8743115644307        266.1519899080151        274.038326711214         268.1693571831457        238.43549314255154       271.1136084075495        270.4444944748556        273.60008146982767       272.5788384879445        273.4069534043793        272.39624299265347       247.10984859792637       270.4744492185869        271.9516694070805        267.1995261568338        255.15489996436074       256.13270473599704       257.80275407670746       259.33618189576333
13.5                     254.73664654316354       255.8049573554582        257.2502272932939        259.19243356520906       286.6740386660925        286.6818291549838        241.3577192364124        241.35506331650444       243.3596402082852        257.3447155168722        247.88049544786364       253.58380446001948       250.29739365424817       250.23402256716167       253.2744810134224        253.26656762298092       276.1925113954893        277.8540821488567        278.2651801051376        261.0744078007758        265.25076690016976       266.93993216522347       236.87918729328942       269.66746226837154       269.11995803809657       272.27619042617465       271.10210711100586       272.18834597230017       271.3034095497627        246.05423597794146       268.9753329751044        270.9514681013874        261.9744442194321        254.8085470369225        255.79635207294092       257.36885728501477       258.96406579824713
15                       254.59049823227267       255.60578237988116       257.0568794253334        258.9368093820671        286.55281284990224       286.5607797081995        240.94778289922684       240.94553822554317       242.9114971162756        257.01606039541144       246.811144778777         252.32181979235722       248.96740707778065       248.8465704265638        251.57103368744984       251.5633089933822        271.0989328068757        272.1996286381306        272.8138549056228        257.32700178061407       259.0224173691353        265.82161709994097       235.53791807364766       268.32352481677077       267.89484101852156       271.03433037251875       269.70593608008886       271.0313870524995        270.3269428026649        245.35352190242745       267.66440754093287       270.04357506023723       258.10519145683753       254.65410806942972       255.6225220337436        257.1389740632982        258.7201306988965
