% Model:              PicC_fullinst_tstep.mph
% Version:            COMSOL 5.6.0.401
% Date:               May 21 2022, 09:51
% Table:              Table 1: Tsense - Tsense Eval
% Time (h)               Temperature (K), Point: 950Temperature (K), Point: 955Temperature (K), Point: 1264Temperature (K), Point: 1283Temperature (K), Point: 1353Temperature (K), Point: 1469Temperature (K), Point: 1480Temperature (K), Point: 1484Temperature (K), Point: 1716Temperature (K), Point: 1754Temperature (K), Point: 1825Temperature (K), Point: 1826Temperature (K), Point: 1933Temperature (K), Point: 1988Temperature (K), Point: 1989Temperature (K), Point: 2928Temperature (K), Point: 3088Temperature (K), Point: 3338Temperature (K), Point: 3339Temperature (K), Point: 3464Temperature (K), Point: 3467Temperature (K), Point: 3567Temperature (K), Point: 3653Temperature (K), Point: 3719Temperature (K), Point: 3724Temperature (K), Point: 3732Temperature (K), Point: 3749Temperature (K), Point: 3872Temperature (K), Point: 3880Temperature (K), Point: 3996Temperature (K), Point: 4004Temperature (K), Point: 4028Temperature (K), Point: 4163Temperature (K), Point: 4202Temperature (K), Point: 4215Temperature (K), Point: 4222Temperature (K), Point: 4341Temperature (K), Point: 4349
0                        273.9992502395285        273.9990092698284        273.9993914531484        273.99934593512296       273.9999107763214        273.99990409030016       273.99994001381344       273.99989134309936       260.0014495497821        280.00001015014783       280.00000848788363       280.0000058559639        280.0000172634739        280.00001576373086       280.0000196864826        280.0000099187433        280.00258088548196       274.00073656744695       274.0007237336593        280.002063863086         260.0018094750484        260.00130994375405       260.00131046268945       273.9989213713977        260.00264052969277       260.0026458066262        260.0011776106846        260.00183989032774       260.0018422829751        260.00132098146975       260.00132489944417       274.00378280565565       259.9986214058567        260.0000015433662        249.99983232513108       249.9998081139447        250.00113082018564       250.00114493278184
0.25                     272.17986782012997       272.0673087479318        273.2639734600015        273.26548527211366       273.67935157845784       273.89034015204453       273.88053983800063       273.8496588509317        261.2384761545611        279.994738576432         279.99166034580645       279.78538706513774       279.99703969631815       279.99451470508717       279.9938353542925        279.98260589453406       280.2928783981161        276.2280926445985        276.1661830988497        280.19694445146587       261.07359211947767       260.50155507770506       260.0829873951251        269.87479104265134       262.1933900898266        262.21079926534406       259.4531085524932        260.2108114104971        260.21484722659056       258.7206272634223        258.7024039604477        274.2836335699406        253.635740647578         260.18900319120075       245.3431960135692        245.2378066747669        245.2173769813894        245.23753815208823
0.5                      270.65493674387847       270.51380783730815       272.5709140608695        272.5719278812149        273.3188826999916        273.77028466007977       273.7502172132455        273.6836795604632        262.11264028864844       279.9727540172942        279.96347906984596       279.55363093055706       279.9830534975608        279.97629991226574       279.97481835742917       279.94675679540507       279.9582390014843        276.85230737222275       276.7595888019973        279.6927088923789        261.59659631349354       260.56845278309186       259.5515700222809        266.16517115144603       262.11527171562204       262.12435129805306       258.0959932201947        259.0004913598774        259.0055846566822        256.53826509810153       256.4969830863077        273.01797228255356       248.09098835503488       260.21189577321445       241.279523194358         241.14942000188162       240.88596503816456       240.91947852382555
0.75                     269.49311495642604       269.39434552790163       271.9287518826389        271.95558259475234       272.94397141278444       273.63643307723277       273.60977300806934       273.50233843471784       262.643874221015         279.9381996126874        279.92089900351675       279.311920746775         279.96104232537954       279.9490929779123        279.94704818304865       279.89714462006873       279.40473667917024       276.5753462844213        276.4919792767706        278.984177028974         261.92422051934767       260.54393026002396       258.8994469250133        263.3071616521701        261.3510107527692        261.3547253221968        256.7106629049655        257.591571857516         257.61093619530016       254.4747421219669        254.43181017548258       271.49346960481023       243.60051942552542       260.14165640667636       238.04691225989814       237.9517433332916        237.4447785044956        237.48482350753582
1                        268.4024851797078        268.3594746636616        271.29664853675195       271.3547216871722        272.56629143885795       273.49981185650785       273.4673187912548        273.317941585505         263.1065419451121        279.90120053973294       279.8755214268653        279.06830952686835       279.93747116899374       279.92013928700646       279.9175827301948        279.8448524776168        278.8111900586063        276.129432026032         276.06323849197656       278.2391275257364        262.21350716143525       260.5016064130042        258.2256856071002        260.6187785265576        260.463294603106         260.4624950830423        255.32430449666293       256.15140866313544       256.1877780262887        252.4408360442852        252.40070495135328       269.9235725353843        239.31846557094974       260.05354172987563       234.97900185645116       234.9300109504778        234.18120102958838       234.22645686560045
1.25                     267.57189622258267       267.61052469299744       270.7063309869074        270.8321867995377        272.17928156123827       273.3467984854407        273.3160929315146        273.1179132075712        263.2900242775301        279.8568455518367        279.8215547924452        278.82256016561735       279.9092049652238        279.88566312730154       279.88324614944685       279.78353757540134       278.2575887032204        275.54391832775633       275.5143668133136        277.56796195753975       262.3433651272293        260.39963525017333       257.59041331892865       258.66740059102347       259.649029517226         259.6629566749772        254.18333281441383       254.95924971158806       255.02714478873935       250.8068871243575        250.79840241357138       268.4028947887805        235.9479017604943        259.9154804072733        232.62913693595212       232.64715722599942       231.70982416272702       231.75856841084098
1.5                      266.88094499055836       267.0151096296613        270.1384517354424        270.3517117210459        271.7872616758469        273.18498279408055       273.16015684102894       272.90949095088445       263.3235885584803        279.8085405562836        279.7629759725634        278.57566265695726       279.8784175967499        279.8482214909408        279.8462938516017        279.7173775967495        277.72543731083164       274.8834419823024        274.900986782614         276.93647087055245       262.38761246578287       260.2656344409921        256.975809018817         257.11178255307453       258.87420646767293       258.9131922848874        253.17412984543714       253.90026503759756       254.00748320429048       249.38770874597023       249.42636000084374       266.908647024518         233.06679339942664       259.75059854162305       230.66485085617023       230.76106942133728       229.66384624247812       229.71515399047303
1.75                     266.1899937585341        266.41969456632523       269.57057248397734       269.87123664255415       271.39524179045554       273.0231671027205        273.0042207505433        272.7010686941978        263.35715283943046       279.7602355607305        279.7043971526817        278.3287651482971        279.847630228276         279.81077985458          279.80934155375644       279.6512176180976        277.1932859184429        274.22296563684836       274.2876067519144        276.30497978356516       262.43185980433645       260.1316336318108        256.3612047187053        255.55616451512563       258.09938341811994       258.16342789479756       252.16492687646038       252.841280363607         252.9878216198416        247.9685303675829        248.05431758811613       265.41439926025555       230.18568503835903       259.5857166759727        228.70056477638835       228.8749816166751        227.61786832222916       227.67173957010507
2                        265.4990425265098        265.82427950298904       269.00269323251234       269.3907615640624        271.00322190506415       272.86135141136043       272.84828466005763       272.49264643751104       263.39071712038066       279.7119305651774        279.6458183327998        278.08186763963704       279.8168428598021        279.77333821821924       279.7723892559112        279.58505763944567       276.66113452605407       273.5624892913944        273.6742267212147        275.67348869657786       262.47610714289004       259.99763282262955       255.74660041859363       254.00054647717667       257.324560368567         257.4136635047078        251.15572390748366       251.78229568961646       251.96816003539277       246.5493519891956        246.68227517538847       263.9201514959931        227.3045766772914        259.4208348103224        226.73627869660646       226.98889381201292       225.57189040198017       225.62832514973718
2.25                     264.8491064396917        265.27224464887666       268.43035551857355       268.9189748304562        270.60197136943526       272.691156844459         272.6877539815096        272.2773856196134        263.33569982349405       279.6622497650048        279.58557746344337       277.8360392236249        279.78515267750606       279.7347476347191        279.73457629768535       279.5168682469852        276.1721347074285        272.95167634660083       273.11104396476213       275.09663979778713       262.4558917180445        259.82636298171565       255.1347009538036        252.60239366448712       256.6322974676587        256.7529769573935        250.21863017428012       250.82937423106992       251.05834998925374       245.26662373842072       245.45510537731087       262.4831151198955        224.67644186000715       259.2462336601227        224.95365781473555       225.28617783871906       223.73974024746911       223.79965843625934
2.5                      264.29430514314475       264.8208303603062        267.8476763834295        268.46734074690994       270.1793103043542        272.5015274428562        272.5165661379194        272.0462627321488        263.0752172091727        279.6093777806181        279.52148146380773       277.59269057220524       279.7513684150068        279.69349206382003       279.694767034329         279.44397162123124       275.78322513349684       272.45605785454535       272.66429398292684       274.64653366896397       262.2861546605075        259.5686474754338        254.52907536515718       251.5694820597661        256.1315331555426        256.29890681598715       249.44879409644824       250.1224668169956        250.40334101734166       244.30039209414747       244.563968177473         261.17878078317517       222.6350801703345        259.0490885912668        223.59241007237225       224.00879354793489       222.40356443476387       222.46909987170017
2.75                     263.7395038465978        264.36941607173566       267.26499724828534       268.0157066633637        269.7566492392732        272.3118980412534        272.34537829432924       271.8151398446842        262.8147345948513        279.5565057962313        279.4573854641721        277.34934192078566       279.7175841525075        279.65223649292096       279.65495777097266       279.37107499547733       275.3943155595652        271.9604393624898        272.2175440010916        274.1964275401408        262.11641760297056       259.310931969152         253.92344977651078       250.53657045504508       255.63076884342658       255.84483667458073       248.67895801861638       249.41555940292122       249.74833204542955       243.33416044987425       243.6728309776351        259.8744464464548        220.5937184806619        258.851943522411         222.2311623300089        222.73140925715072       221.06738862205862       221.13854130714097
3                        263.18470255005093       263.91800178316515       266.68231811314126       267.56407257981743       269.33398817419214       272.1222686396506        272.174190450739         271.58401695721966       262.5542519805299        279.5036338118446        279.39328946453645       277.1059932693661        279.6837998900083        279.6109809220219        279.61514850761625       279.2981783697234        275.0054059856336        271.4648208704343        271.77079401925636       273.74632141131764       261.94668054543354       259.0532164628702        253.31782418786437       249.5036588503241        255.13000453131056       255.39076653317431       247.90912194078453       248.70865198884692       249.09332307351744       242.367928805601         242.78169377779724       258.57011210973445       218.55235679098925       258.6547984535551        220.86991458764564       221.45402496636655       219.73121280935334       219.80798274258183
3.25                     262.62990125350404       263.4665874945947        266.0996389779972        267.1124384962712        268.91132710911114       271.93263923804784       272.0030026071488        271.35289406975505       262.29376936620855       279.4507618274578        279.32919346490075       276.8626446179465        279.650015627509         279.56972535112277       279.5753392442599        279.22528174396945       274.6164964117019        270.96920237837884       271.3240440374212        273.2962152824945        261.7769434878966        258.79550095658834       252.71219859921797       248.47074724560306       254.6292402191945        254.93669639176792       247.13928586295268       248.00174457477254       248.4383141016053        241.40169716132772       241.8905565779593        257.2657777730141        216.5109951013166        258.45765338469926       219.50866684528233       220.1766406755824        218.3950369966481        218.47742417802266
3.5                      262.03209217665193       262.9620821251305        265.3861041565454        266.56373081558525       268.40566895803727       271.69279492626623       271.7963828075698        271.07927208797145       261.6993275021965        279.3958010210824        279.26254792163104       276.6278521020062        279.6146491326633        279.5263080055081        279.53441823899          279.1482287338818        274.3663459259669        270.6967700990594        271.0937738247311        273.0187038505451        261.307223034727         258.3026006952546        251.9869230199275        247.6074963484865        254.35059194720932       254.7150720722668        246.42951888760604       247.55951479812538       248.0511395233878        240.774279284433         241.35326098967425       256.20488190399226       215.1178156370133        258.2426926586064        218.55047937220579       219.29450401501524       217.60474679903598       217.69950009371183
3.75                     261.43210869580275       262.45489255625654       264.665953482675         266.0101152504157        267.8958146081768        271.45041182962683       271.58797162545056       270.80350142053356       261.0880011972239        279.3407346072365        279.1957734775478        276.3934921704741        279.57920264270246       279.48278136405094       279.49344102584234       279.0709655837068        274.12321087590124       270.4356217546381        270.8744484799693        272.7499185280602        260.8223359049721        257.79780987207795       251.25559813011537       246.75282322306973       254.08317350392173       254.5051998385669        245.72278890918466       247.13066669587968       247.6775062200766        240.16399128508237       240.83385506249363       255.1562938912109        213.75740722045336       258.0268312016218        217.6126699761749        218.43235043706488       216.8420556975645        216.94951631727744
4                        260.8321252149536        261.9477029873827        263.94580280880444       265.4564996852461        267.38596025831635       271.2080287329874        271.37956044333134       270.5277307530957        260.47667489225125       279.2856681933907        279.12899903346454       276.15913223894194       279.5437561527416        279.4392547225937        279.45246381269465       278.99370243353184       273.8800758258356        270.1744734102168        270.6551231352076        272.4811332055753        260.33744877521724       257.2930190489012        250.5242732403032        245.89815009765294       253.8157550606341        254.29532760486705       245.01605893076325       246.701818593634         247.30387291676536       239.55370328573176       240.31444913531297       254.10770587842956       212.3969988038934        257.81096974463725       216.6748605801441        217.5701968591145        216.07936459609303       216.19953254084308
4.25                     260.23214173410435       261.4405134185087        263.225652134934         264.9028841200766        266.8761059084559        270.9656456363479        271.1711492612121        270.2519600856578        259.8653485872786        279.2306017795448        279.06222458938134       275.9247723074098        279.50830966278073       279.39572808113655       279.41148659954695       278.91643928335685       273.6369407757699        269.91332506579556       270.43579779044586       272.21234788309044       259.85256164546234       256.7882282257245        249.79294835049106       245.0434769722362        253.5483366173465        254.0854553711672        244.30932895234184       246.2729704913883        246.93023961345412       238.94341528638117       239.79504320813234       253.0591178656482        211.0365903873335        257.59510828765264       215.73705118411326       216.70804328116412       215.3166734946216        215.4495487644087
4.5                      259.63215825325517       260.93332384963486       262.5055014610635        264.349268554907         266.3662515585954        270.72326253970846       270.96273807909296       269.9761894182199        259.254022282306         279.175535365699         278.9954501452981        275.69041237587766       279.47286317281987       279.3522014396794        279.37050938639925       278.8391761331819        273.3938057257043        269.65217672137425       270.21647244568413       271.9435625606055        259.36767451570745       256.2834374025478        249.06162346067893       244.18880384681938       253.2809181740589        253.87558313746732       243.60259897392044       245.84412238914263       246.55660631014288       238.33312728703055       239.2756372809517        252.01052985286685       209.67618197077354       257.379246830668         214.79924178808238       215.8458897032138        214.5539823931501        214.6995649879743
4.75                     259.032174772406         260.42613428076095       261.78535078719307       263.7956529897374        265.85639720873496       270.48087944306906       270.75432689697374       269.7004187507821        258.64269597733335       279.1204689518531        278.92867570121484       275.4560524443455        279.437416682859         279.30867479822217       279.32953217325155       278.76191298300694       273.15067067563865       269.391028376953         269.99714710092235       271.67477723812067       258.8827873859526        255.77864657937104       248.3302985708668        243.33413072140263       253.0134997307713        253.66571090376746       242.8958689954991        245.41527428689693       246.18297300683167       237.72283928767996       238.75623135377108       250.9619418400855        208.3157735542136        257.1633853736834        213.86143239205157       214.98373612526342       213.79129129167865       213.9495812115399
5                        258.36721261323936       259.81516943966335       260.9662861556054        263.1144068207064        265.2737947774191        270.2037098701859        270.51289901670435       269.39187129379224       257.86011169433766       279.06503425368334       278.86161489024954       275.22710245519          279.40154975746265       279.2647023212818        279.28860691888474       278.6836746747592        272.94953685146965       269.2260313612877        269.8877102203843        271.4664170326639        258.1967100943134        255.10109212906266       247.52287214576424       242.47898398495698       252.81736176374662       253.6499218212235        242.14122389982424       245.07672519465945       246.04663766796844       237.24888090237042       238.53134196904685       250.02835994234138       207.24713544162532       256.9469418904537        213.28905240846112       214.37759593589382       214.3744353317913        213.58344748406424
5.25                     257.6494874192003        259.11993852161527       260.0669028604878        262.32952391764644       264.6321205142635        269.8982934922481        270.2446614006727        269.05670890810705       256.93846501579026       279.00930050666966       278.79432154784195       275.0025453682244        279.3653414362405        279.2203678235408        279.24772385532634       278.6046445329326        272.7825082477215        269.1391097396371        269.867503361448         271.3071223459203        257.34726531348593       254.28325268806086       246.65365086634412       241.62345267381883       252.67910392528375       253.79172929708542       241.34767147226725       244.8114993822636        246.10298954739812       236.88562289395466       238.54560159446763       249.18816362607376       206.41541637882122       256.73002579879505       213.0134030653096        213.9793399894679        216.0504047162587        213.52900205255628
5.5                      256.9317622251612        258.4247076035672        259.1675195653701        261.5446410145865        263.99044625110787       269.5928771143104        269.9764237846411        268.72154652242193       256.01681833724274       278.95356675965587       278.72702820543435       274.77798828125873       279.32913311501835       279.17603332579984       279.20684079176806       278.525614391106         272.6154796439734        269.0521881179865        269.84729650251165       271.1478276591766        256.4978205326584        253.46541324705902       245.78442958692398       240.76792136268065       252.54084608682086       253.93353677294738       240.55411904471026       244.54627356986782       246.15934142682775       236.5223648855389        238.55986121988832       248.34796730980617       205.58369731601715       256.5131097071364        212.73775372215806       213.58108404304193       217.72637410072605       213.4745566210483
5.75                     256.2140370311221        257.72947668551905       258.2681362702525        260.75975811152654       263.3487719879523        269.2874607363727        269.7081861686094        268.38638413673675       255.09517165869525       278.8978330126422        278.65973486302676       274.5534311942931        279.2929247937962        279.13169882805886       279.1659577282097        278.4465842492794        272.4484510402253        268.9652664963358        269.8270896435753        270.9885329724329        255.6483757518309        252.6475738060572        244.91520830750386       239.9123900515425        252.40258824835797       254.07534424880936       239.76056661715327       244.28104775747198       246.21569330625738       236.15910687712315       238.5741208453091        247.5077709935386        204.75197825321305       256.29619361547776       212.46210437900658       213.18282809661602       219.40234348519343       213.42011118954036
6                        255.496311837083         257.03424576747096       257.3687529751349        259.9748752084666        262.7070977247967        268.98204435843496       269.4399485525778        268.05122175105157       254.1735249801478        278.84209926562846       278.59244152061916       274.3288741073275        279.25671647257406       279.0873643303179        279.1250746646513        278.3675541074528        272.28142243647716       268.8783448746852        269.8068827846389        270.8292382856892        254.79893097100341       251.82973436505537       244.04598702808374       239.05685874040435       252.26433040989508       254.21715172467128       238.96701418959628       244.01582194507617       246.272045185687         235.7958488687074        238.5883804707298        246.667574677271         203.92025919040896       256.0792775238191        212.1864550358551        212.78457215019006       221.0783128696608        213.3656657580324
6.25                     254.77858664304392       256.3390148494229        256.4693696800172        259.1899923054067        262.0654234616411        268.67662798049724       269.17171093654616       267.71605936536645       253.2518783016003        278.7863655186148        278.52514817821157       274.10431702036186       279.22050815135185       279.0430298325769        279.084191601093         278.2885239656262        272.11439383272904       268.79142325303457       269.7866759257026        270.6699435989455        253.94948619017595       251.01189492405356       243.17676574866363       238.2013274292662        252.12607257143222       254.3589592005332        238.1734617620393        243.75059613268033       246.32839706511666       235.43259086029164       238.60264009615057       245.82737836100338       203.08854012760486       255.86236143216044       211.91080569270355       212.38631620376412       222.75428225412816       213.31122032652445
6.5                      254.03651265784666       255.59059646811806       255.56171614428413       258.365990529062         261.404139948274         268.36206004220344       268.8898479497781        267.3699448153453        252.29319713255856       278.7292148130374        278.4561878341305        273.8785730161396        279.18314914537973       278.99738990013          279.0416409804906        278.207689665192         271.92528913093656       268.55387722651204       269.5907982240514        270.4706787128046        253.0151268101053        250.0941109581678        242.23639362335678       237.22244133761146       251.82447365048034       254.27463129808515       237.21487112330055       243.33282237420426       246.1602686100703        234.9289702605873        238.39623111381482       244.96351903034542       202.18616006536533       255.6305614046918        211.39877868728544       211.76855923795887       223.83514125394998       213.06930242862154
6.75                     253.15846593933233       254.54515945002586       254.6078784996821        257.32353437072123       260.63335106635566       267.99638637682665       268.5318958097763        266.9626692938897        251.12770155261634       278.664151282234         278.3779183308179        273.64620082316867       279.1393642864924        278.9444599332834        278.9897780992606        278.116780270038         271.61290326201896       267.4751883316789        268.4139090014225        270.0482053220622        251.60657262986584       248.61819948031422       240.8986886312893        235.55469613317342       250.61071718935688       252.9274790817418        235.3346455446436        242.06316397571908       244.73855822332382       233.64151258786424       236.95752630377248       243.96751659967563       200.88918262168954       255.31564392710197       209.5667306334017        209.92502669352234       221.59268185574714       211.78046834043167
7                        252.28041922081795       253.49972243193366       253.65404085508004       256.28107821238046       259.8625621844373        267.6307127114499        268.1739436697745        266.55539377243394       249.96220597267413       278.59908775143066       278.29964882750534       273.41382863019777       279.0955794276052        278.8915299664368        278.9379152180305        278.02587087488416       271.3005173931013        266.3964994368458        267.23701977879364       269.6257319313199        250.19801844962632       247.1422880024606        239.5609836392218        233.88695092873542       249.39696072823338       251.5803268653985        233.45441996598666       240.79350557723393       243.31684783657735       232.35405491514112       235.51882149373017       242.97151416900581       199.59220517801376       255.0007264495122        207.73468257951794       208.0814941490858        219.3502224575443        210.49163425224182