% Model:              PicC_fullinst.mph
% Version:            COMSOL 5.6.0.401
% Date:               Feb 10 2022, 10:07
% Table:              Table 3: Tsense - Point Evaluation 1
% Time (h)               Temperature (K), Point: 402Temperature (K), Point: 418Temperature (K), Point: 426Temperature (K), Point: 434Temperature (K), Point: 449Temperature (K), Point: 453Temperature (K), Point: 550Temperature (K), Point: 554Temperature (K), Point: 582Temperature (K), Point: 594Temperature (K), Point: 602Temperature (K), Point: 606Temperature (K), Point: 614Temperature (K), Point: 626Temperature (K), Point: 645Temperature (K), Point: 649Temperature (K), Point: 823Temperature (K), Point: 850Temperature (K), Point: 859Temperature (K), Point: 985Temperature (K), Point: 1906Temperature (K), Point: 1950Temperature (K), Point: 1988Temperature (K), Point: 2033Temperature (K), Point: 2061Temperature (K), Point: 2091Temperature (K), Point: 2288Temperature (K), Point: 2526Temperature (K), Point: 2657Temperature (K), Point: 2745Temperature (K), Point: 3057Temperature (K), Point: 3104Temperature (K), Point: 3119Temperature (K), Point: 3135Temperature (K), Point: 3143Temperature (K), Point: 3151Temperature (K), Point: 402Temperature (K), Point: 418Temperature (K), Point: 426Temperature (K), Point: 434Temperature (K), Point: 449Temperature (K), Point: 453Temperature (K), Point: 550Temperature (K), Point: 554Temperature (K), Point: 582Temperature (K), Point: 594Temperature (K), Point: 602Temperature (K), Point: 606Temperature (K), Point: 614Temperature (K), Point: 626Temperature (K), Point: 645Temperature (K), Point: 649Temperature (K), Point: 823Temperature (K), Point: 850Temperature (K), Point: 859Temperature (K), Point: 985Temperature (K), Point: 1906Temperature (K), Point: 1950Temperature (K), Point: 1988Temperature (K), Point: 2033Temperature (K), Point: 2061Temperature (K), Point: 2091Temperature (K), Point: 2288Temperature (K), Point: 2522Temperature (K), Point: 2653Temperature (K), Point: 2741Temperature (K), Point: 3053Temperature (K), Point: 3100Temperature (K), Point: 3115Temperature (K), Point: 3131Temperature (K), Point: 3139Temperature (K), Point: 3147
0                        272.9943618791996        272.99721965648024       272.9971218857438        272.9971567251537        272.9964670755583        272.99645981881673       272.99440667202424       272.99434174900216       273.0016843395275        272.99948071141495       273.00035988886157       273.0013869415103        273.00230632675          273.0012754968394        273.0006980281448        273.00055344512924       273.0017537058902        273.00108875404464       273.00258676253105       272.99671096323095       272.99684892307124       272.9967938446508        272.9968835633135        272.99870400755714       272.99834363752444       272.998500680657         272.97460623433193       272.9988256811408        272.97374515297014       272.9968759506784        272.97347573402453       272.9968409495064        272.9969039557366        272.9942105079347        272.9942301015022        272.99411576208547       273.0008174845829        273.0007363814424        273.0007551680374        273.00073610806913       272.9981511949736        272.99812138390587       272.9918855625912        272.9916434386127        272.9996359354344        272.9955309351589        272.99727476032          273.00012212149437       272.99631915602686       272.9957828499333        272.99610835098713       272.99606718688415       272.9994726428177        272.99958764105685       272.9992367017162        272.99654595460964       272.99801803528385       272.9975813970539        272.99800867031547       272.99861962995806       272.9982251830621        272.99840155115504       272.9754530706649        272.99893156153684       272.9747979089254        272.9943285468973        272.9745659765609        272.99640896137663       272.9948361341633        272.9987529570292        272.99474057594915       272.99862645044027
1.5                      246.97761433630123       258.280018949653         257.94976032486306       257.932518649827         249.00731649763281       248.87789850942238       250.24909207059332       250.13451478930372       268.7800884710763        263.2233898478094        268.8020673717388        278.6046901532303        284.46247441832577       282.6420674922011        269.9292168818161        269.60831481914414       277.79115127621066       278.4258569193154        277.926386978559         258.2430148294571        236.2094018791811        237.95873450997865       237.32284986060807       263.94312055755444       263.3258327343831        263.9077827547796        256.664489534249         243.1554961729628        255.7681730646098        241.28980193111028       255.70564807004612       260.121981993052         256.4043458981303        255.49537219103235       247.06066657088743       246.50128901767113       256.1487888355115        256.8651058929779        256.645391170076         256.4809433614932        251.68992557657256       251.23162882122762       239.8326328351449        239.22785296831623       255.583490946338         251.6193966046921        253.75883387646908       256.877412866947         263.37406728683607       257.66489248794437       247.5828945700748        247.3257078563755        264.4541421008713        266.7582805916287        264.88996044803133       247.2927365474974        245.26739094288402       244.7273781585637        245.24032274823705       263.4548505381946        262.7466237695581        263.39767464821114       259.4764093121981        245.41966626100736       258.5870883357578        229.44375142994176       258.31847781526466       249.38275767200966       247.77505135752347       257.8960039907735        248.4656761625013        249.19427442319915
3                        247.7088439821594        253.92185876628966       247.47496444519422       247.0894408718674        239.05630687544863       239.00915164804672       243.79846170141855       243.7402321966848        261.97244893257744       257.11207841522014       263.2842427847728        274.5832873532343        279.53764827954853       278.26069483338915       263.7867826883375        263.6488868345584        277.95436562937226       280.5514144425991        277.2909113961021        252.23379094733454       217.39147850443928       219.61671054551556       218.8652877512565        255.64205491738812       254.73411913763834       255.62503908965385       248.33035846228967       232.991776627565         247.35273803169022       233.73762214818913       247.6108642805982        254.32670341134096       253.64723143695574       247.70102105764724       246.96994669018633       240.34487454196838       244.60857761535632       256.24475424376686       255.67604913741468       255.0942605884904        241.1991325393486        240.8018057294961        238.42182888907655       237.83102806684388       266.90276411139865       257.21304408885464       262.2621841348475        263.8370697787466        266.51384050392573       262.4558170369697        247.13386319938527       247.65260580015214       259.5251255830971        267.4255399978705        266.1039946998352        240.80310498420295       227.41964795445583       227.05497413653183       227.39696591650016       254.48003393898017       253.4570783242677        254.41640275606485       252.39796008151666       239.285602683344         251.41586792940308       226.26323184907076       251.3145659857065        245.1964041599939        250.730019755931         244.89877356223602       241.51037229779908       240.8860809125624
4.5                      240.59434349718217       242.38454680362906       240.08452431886977       239.49161385355018       233.7282964992265        233.714225765814         231.22640039291323       231.1826695742593        246.6107213703557        244.14199941147186       245.54116726878124       249.29363390003115       252.55521972347069       251.95194741547525       240.5014276630422        240.52377349862488       264.309347602797         266.6310463031461        264.03924059583966       235.68855594447524       205.74713871411342       208.0919432863705        207.3346849953643        248.31196030559514       247.2515408848942        248.32006116141102       241.59821574159906       227.65379153744806       240.62157557498912       218.9842547205446        241.00423022715952       238.11429132769294       242.64641022145233       240.36489907623306       239.92822489844121       237.14181892758265       241.21572652169107       252.16908360276565       254.4763282130048        250.56275063373104       235.37575550429338       235.05629142848713       242.55218818598175       242.1289376326768        271.051156068383         260.7884010985263        260.291852946706         266.6889654971094        274.9973274253283        273.49438759153526       257.00774003232186       256.68812690491717       265.8099861909617        270.14595539098923       271.90229140475776       243.22145638320757       215.56349138853827       215.4075257559463        215.54450506048136       246.44112001058343       245.24982318204823       246.38415602677827       246.46370845215336       235.40845286787072       245.43460707603506       230.90338023442584       245.4343841599096        247.60513377375483       252.20268041277703       241.02520301185567       239.18124671496182       237.96727503913982
6                        237.78527315576738       237.99326790846513       237.10330673579136       236.33952417126758       230.31880987322015       230.3139605577264        226.06762575767354       226.02927509332207       240.40112941514937       238.5229223427433        235.95937092309237       237.1823520069968        240.48945006744898       240.1200745027847        229.28381059504514       229.35426119322648       253.18122304691744       255.35268819382102       253.24975793891653       225.079869125237         197.4239708525883        199.77643372569875       199.04460483701286       241.73883318970093       240.58614296501077       241.77097777153304       235.72294918865802       224.32991423540005       234.7359559886441        211.33101537741896       235.21882250780152       227.7427541309349        238.52179795723822       237.41472938875975       237.0674114709038        235.56342789178956       241.94145255971935       245.41207972347573       244.23972850100856       241.175353364948         231.58415804229205       231.4383102647922        245.45354654163805       245.3274763924116        270.1303618273363        261.57630520824074       262.8915182562495        276.0047055806708        283.96982287700115       281.9838869345853        263.35617676927995       263.10724026525156       273.77995488233137       278.774232386802         277.1394285627274        249.22840946739439       207.06482321490108       207.06419438593247       207.0548934523761        239.2254889658073        237.93306349357164       239.18375996484346       241.1232133555256        229.62670063882226       240.0937445461174        234.08384863358017       240.22490698792333       252.99119615642428       245.33426774976277       251.04632608093527       240.55631645699395       236.91773122032438
7.5                      236.8255492398238        236.532225271438         236.04261637346247       235.15702116185673       228.27389121467354       228.27147933815473       224.21638508937093       224.1798462868846        238.22753343622364       236.2937340279445        231.15466140880156       231.4234298673567        235.12474272881607       234.84303125208703       223.88499887485858       223.97590954133972       244.64338744103867       246.76191736023063       244.9865684005897        218.581938982032         191.68885196235604       193.9916354088941        193.29433628898735       236.01005863086888       234.80780932009856       236.06213917457453       230.6368692976366        222.4676762685585        229.62569780944378       207.72080234631102       230.1998608174575        221.40940379327418       237.18503413308025       236.37784300954982       236.0367869515464        234.8594050856352        244.32177173710247       245.31818086730786       238.90630976891998       237.01951830280137       228.88185280863905       228.84357636634869       237.53895493739242       237.4710864368067        256.6394016237823        251.56107777658409       252.1592088778722        260.21712265337334       265.204426723785         264.4618469100358        249.06429495455117       249.0285893681569        269.6808677940154        274.83841246720164       271.7016319234526        242.5342383404634        200.32441672039897       200.30325057334798       200.32198206654073       232.7751390656031        231.42343394620298       232.75049971484643       236.2459420192622        225.00643456384242       235.23682825999745       225.1270557829574        235.49826596311118       245.8602428487876        245.62943068553957       241.99859147889768       243.2252896559138        235.8017106237748
9                        236.4240169377128        235.92739120009497       235.57460356266213       234.60004001010967       226.9108990813968        226.90940749698711       223.4156426603581        223.37991718856418       237.30343023472392       235.23152335246314       228.35069713049597       228.10727624755654       232.1584785809795        231.91982498391886       220.70163700430865       220.8049798611509        237.81911519940525       239.93975189490084       238.39506183846063       214.15010086701452       187.4031125755639        189.63856348152453       188.97444343551686       230.91093888541323       229.67983918664706       230.9790114733321        226.07768784117093       221.3136075807373        225.03410003523413       205.7291929251402        225.69438584891208       217.1034119019956        236.64839709364034       235.92876542597378       235.57715486277598       234.48290374758062       238.92065562217365       238.68087622799973       236.0417601944642        234.4894053970034        226.6271949911443        226.61537145411495       227.96417279054805       227.91605439929083       243.99949837996706       241.1340546847535        238.29107219060447       240.41770243500184       244.02574417831593       243.8260100009776        230.7914592158466        230.83773654939955       257.5562690445107        261.900669704084         259.26377045534116       229.26726868852364       194.11923875750787       194.02041513179046       194.11743084517252       226.95230260514472       225.5645554689219        226.94041661553302       231.75672539401458       221.13491431811926       230.7583171532697        212.9105370538519        231.07684083596314       232.56880814251895       239.44753515493755       237.6230692472716        237.51551536006048       233.9658813019842
10.5                     236.25086467752578       235.66712914338646       235.35683134337825       234.3169595848209        225.97797330809198       225.97687605656134       223.0656094404272        223.03032355031536       236.90284041351987       234.70858251547895       226.6620941736837        226.11272979632497       230.4270299562516        230.2099655301443        218.71570123310957       218.82721694505534       232.3407984072882        234.50080136423975       233.11633329200748       211.06181076996464       184.14428610799663       186.30774561747563       185.6727384215124        226.3625383193217        225.1151032600823        226.44293993369573       221.95577389235947       220.58738302442964       220.87454668201752       204.59393045444415       221.61618554887048       214.11331881309147       236.42695190416413       235.725654644042         235.3608974316287        234.2687571564456        237.01566191660157       236.2967015003957        234.72346960358254       233.1914138611828        224.8701708400251        224.86517677706357       224.4488575458367        224.40694316100598       239.48626028382625       237.02718128991853       231.76121763015914       232.13899210293812       235.99917016416285       235.9423387144873        222.91801232514464       222.988528550453         247.96205947061821       251.89165101691984       249.55716563050083       220.86006472029314       188.88370973705875       188.77700977268964       188.88222076192034       221.73631274688012       220.32882949584234       221.7350940847108        227.65627826156043       218.5917914580171        226.64937528119228       206.9956470785017        227.0321376409811        224.19543397385644       237.32168547576777       235.9129597495462        235.35443000518097       232.89760258026942
12                       236.1727019568216        235.54852253231775       235.2479269652225        234.15910776137332       225.32095373353323       225.32004817153393       222.91024510413698       222.8752543903532        236.72354327060813       234.43975619888514       225.6158581397034        224.87143108880358       229.37198549876916       229.16537297559412       217.41867681112808       217.53575383923345       227.92377025340642       230.147499318277         228.87179784601992       208.87219544453654       181.63020388265147       183.7235154347471        183.1128245946549        222.29535186140822       221.03908299529425       222.38488199526972       218.20608782026125       220.12189374145547       217.08424548126345       203.92439577856658       217.90260547431828       212.00105218984038       236.33154399264322       235.62801428572206       235.25159571979628       234.13780179521018       236.18347976353502       235.22699960063528       234.02381854344685       232.44475818320484       223.49670018473256       223.49426517087258       222.8628996763287        222.82328832630407       237.48940711042923       235.04833191999717       228.144568459589         227.7561502440077        232.03007080159188       232.0258126483769        218.58655186976839       218.67064848364822       240.16995188420032       243.89293051257624       241.73952899749517       214.95482176646507       184.43130422055495       184.33420284895544       184.42996655112827       216.96873835608443       215.54969089576394       216.97640526377788       223.8415609477341        216.87478326811956       222.81638317067203       203.70453421584747       223.26581640967396       218.33928966378696       236.4094499544529        235.10199290163484       234.33655017660078       232.2453637484616
13.5                     236.12865124463994       235.48048295813442       235.18002279241253       234.0509142291071        224.80308464471733       224.80229828844796       222.82608467607824       222.79133465622326       236.624160570676         234.27192681449975       224.86856255752153       223.98026039306572       228.62396519966708       228.4230258876003        216.44658236499373       216.56789980257034       224.11536793708686       226.41483596782845       225.2200424164495        207.14763013440776       179.52387256119638       181.5499783383003        180.96039148136435       218.5240192550372        217.2623705566968        218.62076368370688       214.6808046059989        219.7820542519354        213.51705654959562       203.46236530673065       214.40884874594488       210.342067229461         236.2798871721358        235.5694527847872        235.18291851193968       234.04272810513424       235.81226312199558       234.7320980089644        233.64574607549739       232.00782583660904       222.43976028739922       222.43834426371856       222.13897079266852       222.10013108377373       236.58984282841496       234.07697514049153       226.0868430480482        225.3258537768928        229.9596198538457        229.97190030369143       216.04111602631008       216.13392914298265       233.82598907154284       237.48028165695274       235.42023202456426       210.71194636320263       180.64585597558238       180.5629982498889        180.6445936512704        212.5948248365045        211.1688681408215        212.6096897028256        220.27829569866077       215.7273827984042        219.22885727171402       201.84003882995978       219.74450377370226       214.15077337265328       236.00955365780447       234.70696194892247       233.8385131232408        231.84777277238138
15                       245.1249367010287        245.20712894752955       245.1557108992817        244.30613175133502       241.007086839452         241.00220472636386       223.27485984595103       223.24772047870735       247.1691899338061        247.2485840246448        225.49258449141206       223.6152276580728        228.20320921563058       227.985763832512         215.83809932926937       215.96320068584808       221.01621172813626       223.1551447879039        222.25264551380317       205.90921047466898       177.8980550010195        179.86760686509444       179.29283617616994       215.15577210049398       213.85010522824822       215.25386752619565       211.64903545767828       223.31286042473369       210.2531280698085        206.04150322722026       211.37865350448345       209.1598109456197        245.25452535671923       245.11196297705197       245.3145903782509        244.11447918891486       235.64103833107964       234.49339002413646       233.43520066497328       231.7441645399049        221.62933761663697       221.62835721666707       221.8044048104706        221.76576658974153       236.17572452076652       233.58908764632164       224.88760585738518       223.9312127908678        228.83417580532412       228.84756022095272       214.45747522997016       214.55625318535587       228.63704051035444       232.31472283955418       230.2850899960061        207.60706612170756       177.41542450078148       177.34715473546396       177.4142017880604        208.56734108309104       207.13681403152177       208.58785369483954       216.93886252733694       214.9611254424353        215.86165640457548       200.76338478604075       216.44155714039653       211.10026625699132       235.8282619480665        234.50694796870152       233.58284069831382       231.6009396950002
