% Model:              PicC_fullinst_night.mph
% Version:            COMSOL 5.6.0.401
% Date:               Aug 7 2022, 21:31
% Table:              Table 3 - Point Evaluation 1
% Time (h)               Temperature (K), Point: 136Temperature (K), Point: 154Temperature (K), Point: 203Temperature (K), Point: 224Temperature (K), Point: 291Temperature (K), Point: 328Temperature (K), Point: 365Temperature (K), Point: 395Temperature (K), Point: 458Temperature (K), Point: 478Temperature (K), Point: 518Temperature (K), Point: 527Temperature (K), Point: 629Temperature (K), Point: 639Temperature (K), Point: 643Temperature (K), Point: 651Temperature (K), Point: 716Temperature (K), Point: 730Temperature (K), Point: 732Temperature (K), Point: 773Temperature (K), Point: 803Temperature (K), Point: 833Temperature (K), Point: 850Temperature (K), Point: 884Temperature (K), Point: 913Temperature (K), Point: 939Temperature (K), Point: 964Temperature (K), Point: 997Temperature (K), Point: 1152Temperature (K), Point: 1241Temperature (K), Point: 1287Temperature (K), Point: 1419Temperature (K), Point: 1436Temperature (K), Point: 1873Temperature (K), Point: 1915Temperature (K), Point: 2309Temperature (K), Point: 2510Temperature (K), Point: 2653Temperature (K), Point: 2663Temperature (K), Point: 2686Temperature (K), Point: 2790
0                        275.7363027224949        276.0906657425751        274.6566396692108        274.3109620635749        268.8796744460816        265.31015070657935       264.8852266341993        263.9300579539349        259.5921901028483        257.87899259156376       265.2685016219811        251.87250487738632       243.23016455676236       264.8639455135956        276.05996220450277       275.6824949179198        236.09664783971698       273.6549438433632        273.9183540656955        265.2788866334973        238.4745584239299        261.7021930948045        260.7573500903251        256.14503539406354       252.29973625095676       249.06869710563547       239.78419092611705       233.8356437675057        273.88091995776114       273.8408857910649        273.9300191104169        276.43737076793644       277.7397697016942        277.60047302494576       276.44522159957427       276.42063712640623       277.7486838767253        278.99978608186797       278.9996469739164        278.99952257597073       264.2994552315331
0.1                      273.84921614218644       273.74721081310184       274.73920541079286       274.4369471675987        266.0053494478927        267.37619899580216       263.2865729463953        262.10059248123423       258.15200013669744       254.33127221968124       267.0999902939204        250.64754345747681       241.30003654740526       263.13245596700995       273.59766553157385       273.7236363123541        237.34450510145365       274.1781059881768        274.4300648354807        263.34808903180067       238.46918599502584       260.8788149105706        259.36756687206804       255.4140826598682        250.416721330645         248.2197889477697        239.44767339500967       235.657019046733         272.7212555129038        272.74115580056747       272.3821174306895        275.65286729957757       276.59355907614145       276.52194170136977       275.6285371519048        275.66620711931347       276.61811302478105       278.5876931414746        278.56948809222655       278.567083719297         263.87466073554936
0.2                      273.38318631774825       273.288109220003         274.54161931799314       274.2465272522364        265.0736937988509        267.90246219107865       262.73766378259137       261.1117346612046        257.66123233938276       253.1555792509093        267.5674027700743        250.13510359082574       240.73869517648072       262.3137856035954        273.1202970066432        273.2393077550996        237.6710523829144        274.028756557841         274.27607907344577       262.6546829002963        238.44912823158936       260.5872380901428        258.71833123859943       255.14839569436714       249.74464115908248       247.88391729404768       239.34120725011203       236.14648137565436       272.48697083998695       272.4992700975625        272.07116112791175       275.50404026463576       276.35733164062276       276.288705709196         275.476817478625         275.5168465675514        276.38047236519446       278.41447518764267       278.3996685888663        278.39623189391597       263.68044995100524
0.30000000000000004      273.0499105150269        272.96164457936186       274.2864060304928        273.9984938678031        264.3215644308143        268.2004060659402        262.2880406843847        260.2243358790347        257.22220978883456       252.24413182233022       267.8311619432227        249.7117017349655        240.35525078847488       261.54362411920226       272.78361652894404       272.8952212032453        237.88992588529476       273.7886017189269        274.0295738332978        262.0996397219182        238.4168953208755        260.3346729146724        258.12222796748847       254.90284756769256       249.21497792255522       247.61186581009662       239.2622788421085        236.48821060281594       272.2677507324771        272.2768024461544        271.79993990068726       275.38218429378946       276.16001568850396       276.0949276112685        275.3535938419972        275.394149340079         276.1814472687482        278.2813521022613        278.26784766867985       278.2628228607127        263.4908854365528
0.4                      272.7628048307522        272.67924459585134       274.0042443866038        273.722942801288         263.6705861547868        268.34867058653197       261.88675748035075       259.4226739297436        256.80598616533416       251.48854293604884       267.95933886117234       249.33711159091908       240.06176418779563       260.80738666826426       272.494856218918         272.60131098796325       238.04547686378984       273.50984557312404       273.74443730160544       261.62173907759046       238.37414693775958       260.0948424928005        257.5621344780126        254.66161524597004       248.76708254502313       247.37267159816605       239.1957617710085        236.74824242745623       272.05194550532383       272.0594459313766        271.5473074387303        275.26917642357733       275.9813403269777        275.9190971683151        275.24005131593145       275.2802319076226        276.00115700112684       278.16907443630384       278.1563019288035        278.14991410283346       263.3014685064809
0.5                      272.48990851950356       272.4100095122621        273.707982621034         273.4325136308959        263.0848522526205        268.3913678641047        261.5118834436785        258.6911047636242        256.4010333724256        250.83549650024096       267.9904689968751        248.99155396502977       239.82117420397068       260.10294508451915       272.22153189336086       272.3239318953605        238.15676906937273       273.21275879979925       273.4414792250518        261.1917882976584        238.32290674290462       259.85745319205006       257.02973467057575       254.41843642448487       248.3713039505865        247.15143843454973       239.13496693891705       236.9543335111756        271.8368298217856        271.84358361534936       271.3053059487684        275.159983442915         275.8152973862713        275.7556335957892        275.13073843977537       275.17020045153436       275.8335986042151        278.0693408503926        278.05704927984357       278.049654967203         263.1113102463934
0.6000000000000001       272.2196048245407        272.14276505774615       273.4043805812791        273.13414374400566       262.53813917722414       268.3687590065788        261.1506146487585        258.0069833711329        256.00138439000443       250.2441546041231        267.96090407969547       248.66204415262715       239.6104884146996        259.4234273100358        271.95143127857745       272.0504061226288        238.23958999006774       272.9068992590556        273.1302365955484        260.78926142144707       238.26604394278712       259.61893574797136       256.51613096725225       254.17185323062932       248.0059291621504        246.93925302991735       239.07634454298014       237.12683551609433       271.62153759724964       271.62789149629367       271.06916972944236       275.052558104927         275.657095914728         275.5998528679086        275.0233864023811        275.0619972980489        275.67396814948324       277.9767892273129        277.96484121251          277.9567171641237        262.9204745928285
0.7000000000000002       271.9480270141707        271.87373260305975       273.09518013280086       272.829605726123         262.0241486425207        268.29098827954164       260.79939213361223       257.3657261133652        255.6055526157006        249.70449125760666       267.87964595009083       248.34509295870416       239.42386176076042       258.7694994234281        271.680490706595         271.77657819205865       238.29703102254936       272.5948230708754        272.8132800925329        260.4086988020064        238.20426908242595       259.37790184657405       256.020012599602         253.9210267437047        247.6653082513293        246.73343130113753       239.01850495716135       237.26982529515465       271.4058599384167        271.4120236544322        270.837711091384         274.94642410512284       275.50574503283923       275.45077088356106       274.91745026745883       274.95514233242176       275.5212797274769        277.8900262987643        277.8783020063296        277.86970898528557       262.7289861001792
0.8                      271.67165231931347       271.5994775609134        272.7820204816091        272.52058058108327       261.5368396843252        268.16861670781554       260.4548946236492        256.76267791188263       255.21252902452937       249.20663562140305       267.7561110305669        248.0373817554497        239.2555696295075        258.14249094888464       271.40500315396343       271.4986486508323        238.33199141071702       272.27889766470787       272.49297657716505       260.044702028986         238.13839550423432       259.1331491175212        255.5404612666062        253.66529830962384       247.34384578374733       246.5313011422919        238.9598769735402        237.38687157035977       271.1897406374618        271.195798642561         270.60983880997003       274.84119987405865       275.3603692281751        275.30751425083935       274.8124818615317        274.8492505774697        275.37466268866706       277.80764281722657       277.7960331213851        277.787207873381         262.53693068762533
0.9                      271.38941029763345       271.3189777270741        272.4656076763941        272.2078138911991        261.07351955255893       268.007676445324         260.11590956920816       256.195256013761         254.82266300711115       248.74581284425815       267.595780943929         247.73759907871087       239.1028143796821        257.5436969772719        271.1238333095406        271.21543165512304       238.34584574005487       271.96005406282393       272.17023196615486       259.6947026005894        238.06899476391283       258.8844645976072        255.07753664678302       253.4047607993558        247.03885576929056       246.33161504403344       238.8994444642509        237.47917621769645       270.9733909461504        270.97938622161263       270.38513989959375       274.73681619005896       275.2206525412806        275.1697628086785        274.7083848658353        274.74425215193423       275.2338026107651        277.7288859136457        277.71728108644936       277.70843434714163       262.3444574095581
1                        271.1013284256047        271.03233120085304       272.1467719037247        271.89221083907285       260.63045792127446       267.8162609408241        259.78138624230354       255.65875176834817       254.436627257161         248.31561050519645       267.40620656281277       247.44442186362028       238.96208226096175       256.972211405227         270.83696130619796       270.9268347136029        238.34138049502965       271.6392152040007        271.8459043226399        259.35574888601354       237.99684987594406       258.6322292515093        254.63038268015987       253.14019904882903       246.74711071493914       246.13329346643778       238.83642304627602       237.54934966734993       270.7571164787944        270.76306704103666       270.1630993011948        274.63318367021805       275.08594256381843       275.03686982310285       274.6050513864022        274.64005427320285       275.0980409792656        277.6528293837822        277.6411301098684        277.6324285440662        262.1517881836503
