% Model:              PicC_fullinst_center_insul.mph
% Version:            COMSOL 5.6.0.401
% Date:               Aug 23 2022, 10:00
% Table:              Table 3 - Point Evaluation 1
% Time (h)               Temperature (K), Point: 136Temperature (K), Point: 154Temperature (K), Point: 203Temperature (K), Point: 224Temperature (K), Point: 291Temperature (K), Point: 328Temperature (K), Point: 365Temperature (K), Point: 395Temperature (K), Point: 458Temperature (K), Point: 478Temperature (K), Point: 518Temperature (K), Point: 527Temperature (K), Point: 629Temperature (K), Point: 639Temperature (K), Point: 643Temperature (K), Point: 651Temperature (K), Point: 716Temperature (K), Point: 730Temperature (K), Point: 732Temperature (K), Point: 773Temperature (K), Point: 803Temperature (K), Point: 833Temperature (K), Point: 850Temperature (K), Point: 884Temperature (K), Point: 913Temperature (K), Point: 939Temperature (K), Point: 964Temperature (K), Point: 997Temperature (K), Point: 1168Temperature (K), Point: 1257Temperature (K), Point: 1303Temperature (K), Point: 1435Temperature (K), Point: 1452Temperature (K), Point: 1889Temperature (K), Point: 1931Temperature (K), Point: 2325Temperature (K), Point: 2526Temperature (K), Point: 2658Temperature (K), Point: 2691Temperature (K), Point: 2700Temperature (K), Point: 2806
0                        275.08512252184545       275.96776792384594       273.92404428180976       274.1571825521373        268.838374574955         265.1131800765783        264.7801561458325        263.8483844242731        259.4302094656098        257.7683410906441        265.09093620991945       251.8141237289618        243.03971963792884       264.7711701140419        275.913238005751         274.9839536510821        235.73726951693004       273.12835963779827       273.3285412346266        265.24662336145474       228.42460674115677       261.5928141611717        260.71026115907864       256.0377399859246        252.16769043517323       248.98993424450623       239.5489798412486        233.51692892325278       273.6069094706508        273.47711110755677       273.7723654893761        276.03474308182604       277.2952326871704        276.95338000097416       276.1069747337628        275.9013407690818        277.31243390826273       278.9981269782121        278.9991167290838        278.99885760449683       264.29744780463585
0.1                      271.1652386757597        271.0730559410048        271.63945029573904       271.3455930666147        265.06721115999153       265.7756832400305        261.73831618870344       260.0781548152234        255.85453793028276       251.1112705582261        265.62968762424356       248.0596593375082        236.03913977741865       261.8764531457065        270.9669240339765        271.07350790248887       232.39055400832663       271.1838848651505        271.41708917416133       262.86475154065266       228.38218987888263       259.8170729061191        257.897070137095         253.87046822031382       247.886238857461         246.0259352464883        234.44776615483067       231.08163914361654       269.90159352412735       269.9724830733363        268.89553630394425       270.73400257050747       273.91043816961195       273.81586190268706       270.7289746076565        270.76168489065213       273.9518658753041        277.02384827214286       277.72987978361334       277.3722179590569        262.26926168678574
0.2                      270.19842622358965       270.11229077301203       270.87574124582665       270.59039794221906       263.8621748086313        265.6976191733454        260.69960945634153       258.3313486776893        254.70094902060376       249.02005160229416       265.5434808217226        246.58132557010174       234.1304512000878        260.54723683737853       270.0172825435589        270.1175355044614        231.4577951704411        270.46159633880256       270.6856156648704        261.99061191823176       228.2600243268172        259.14640803488004       256.7328033273008        253.10553309053526       246.4250728524708        244.8708271480102        233.07412529169707       230.37313531378717       269.25784550167896       269.3040442610891        268.0421903117548        270.0789397142955        273.03348575982335       272.9408068688376        270.05109025029714       270.1066088619463        273.07478460039937       276.2742945379935        277.2593660562114        276.8025210526589        261.3920139193537
0.30000000000000004      269.488918050066         269.409442429159         270.1823282792459        269.90724961667104       262.8655375435258        265.45393544762123       259.8455885822738        256.8532263445864        253.70933124813558       247.42669212872593       265.3091443659355        245.39618915693995       232.85016505208418       259.32655240808384       269.326740497897         269.4190838533834        230.72330766534887       269.78532265061347       270.00093388780107       261.2508751007032        228.07225741221635       258.5539637933901        255.7051713460276        252.42050423347806       245.28246145636567       243.93497735656135       232.1494901080864        229.7960799393384        268.6660533320686        268.70287151728826       267.3122984395664        269.56536659812144       272.2960610317486        272.2069804179063        269.5242211708151        269.5915967514452        272.3352392864355        275.7033319278943        276.909920414517         276.3609035937388        260.5715998181778
0.4                      268.8666432533827        268.79058894454033       269.50739955375474       269.24078742676284       261.9791276480189        265.1067556458149        259.0841432508248        255.5692296798733        252.80588806880547       246.11795724960507       264.97838878444543       244.37680733855456       231.8673255789124        258.18621161282215       268.7192275792746        268.80721720587354       230.0704016631761        269.11916138987914       269.32725823711576       260.5760937702879        227.8293002717629        257.9915021929694        254.76334972200516       251.7707130502854        244.3152606156996        243.11551332951854       231.42780905061247       229.26780059909296       268.0881083457498        268.1212205411601        266.6385363262934        269.09175624149435       271.62576702327067       271.5391652903144        269.0434023653842        269.11590000492123       271.662476778577         275.2297810337292        276.6219342690077        275.9874386915698        259.77840235879455
0.5                      268.2713425952476        268.19764945025884       268.8367167940374        268.5775951071384        261.1602454899108        264.6917665904744        258.3759551901159        254.4285512220174        251.9595535454973        244.99017789887705       264.5816960626961        243.46157700538632       231.04513973456838       257.1169136078778        268.136415514178         268.22127079477815       229.45674606235414       268.4538769012372        268.6552299793171        259.9358565687041        227.5423591093471        257.44048259246995       253.88268955257243       251.13866085930712       243.45576114332505       242.3651647789136        230.80805782873355       228.75962921267256       267.5149898542742        267.54684942994095       265.99638896438944       268.63484532131645       270.99882657062676       270.9145346587952        268.5823833325064        268.65717972280993       271.03305948241234       274.81613515484725       276.3692665623149        275.65606192417744       259.00274514362786
0.6000000000000001       267.68169261450436       267.6099227272746        268.16668768260126       267.91442534572235       260.37982240472627       264.23767927116126       257.6961422616417        253.3776235130334        251.1471912400202        243.96655490214658       264.14564675579624       242.6061756953494        230.30599297646415       256.0993591673639        267.55778967716685       267.6400485090767        228.86205564377917       267.7877668169959        267.9829280778937        259.31252241100015       227.22681855358718       256.89274109976685       253.04068299274346       250.51499291399114       242.65638728307655       241.65286876518573       230.23683767748193       228.25966827483987       266.94315965033644       266.9746874959827        265.37133697666906       268.1856852014452        270.39785999910384       270.3158231517204        268.1305593770464        268.20643728045746       270.42971192568285       274.4366590874498        276.1356810104491        275.3488898112384        258.2382448759327
0.7000000000000002       267.09116113956856       267.0210159985249        267.4966487891609        267.2506718533496        259.6301339569978        263.75283513798286       257.03756456359156       252.40204830310967       250.36323343175465       243.0256509771497        263.6777324483705        241.79854473405015       229.6279789903416        255.13107283366438       266.97693871002394       267.05698718996655       228.2812956504587        267.12065234275053       267.3101379337715        258.70078916294193       226.8868694270099        256.3456327028272        252.23210147803658       249.89718216979276       241.90352993785797       240.9699668099073        229.69836819229593       227.76488484154157       266.3718126119815        266.403454901638         264.75960219719957       267.742262069997         269.8188892952579        269.7390429466557        267.6853969152897        267.7616110841311        269.848497323392         274.0842316141446        275.9164722877028        275.0609788099307        257.48387703632517
0.8                      266.495904368514         266.42715743191457       266.82662890973756       266.5863735346977        258.90805416685794       263.2414959950204        256.3967669505089        251.4959868992341        249.606320421592         242.15752863542724       263.18158555333247       241.0335342066177        229.00019688530108       254.2139902922237        266.39001868683863       266.4681651988442        227.71280565262964       266.45280070050427       266.6371327204637        258.0978580727118        226.52443731448108       255.79761992899688       251.45583005885177       249.28433829422264       241.1905727280326        240.31249487324706       229.18411882344114       227.2741120081269        265.8008850799473        265.83282252190713       264.159692339269         267.3039971687799        269.26100532576453       269.1832617342769        267.24602094673276       267.32209691471013       269.2885381477804        273.7553535401024        275.7090872420348        274.7898722570709        256.740174836225
0.9                      265.8939307797195        265.82642398698965       266.1571138532157        265.92207109127315       258.20955592644805       262.70920765929606       255.77006275551994       250.64968484666997       248.87432606723087       241.34923828614885       262.6624334197592        240.3045009005365        228.41086636554644       253.34650041222963       265.79513614739034       265.8716089471759        227.15530948402548       265.784927690816         265.9645926853949        257.5011635441022        226.14313194171768       255.24788898828555       250.7092343989777        248.6760258777725        240.5096218216381        239.67587245829054       228.68600721114905       226.78667335412874       265.2307562088281        265.2629809701471        263.5698885525415        266.8704149518035        268.72244799980206       268.64669789853997       266.81169950809686       266.88739137371414       268.7480848630066        273.44533327004234       275.5104697034325        274.5321803477146        256.0074579483554
1                        265.28539666951616       265.2190254812873        265.4889098374486        265.2586597205301        257.53039392740027       262.161777973816         255.1542389564271        249.85142136113217       248.1646386303266        240.5872546418657        262.1261449252186        239.6045342143504        227.84923845210255       252.5234648005124        265.19263092556014       265.26759025945887       226.60791901385403       265.11803331456923       265.2934458693833        256.9088781857519        225.74753426215645       254.69651889733893       249.98856615753013       248.0723299287214        239.85303460971454       239.05574868047657       228.19777059715295       226.30234570485604       264.66209817814047       264.6945175974707        262.9884844785455        266.4411003783579        268.20077693324924       268.12689877001117       266.38184952497335       266.45705565295174       268.2246869311244        273.1491076048218        275.3176096006498        274.28417609787044       255.28573110019718
