% Model:              PicC_fullinst.mph
% Version:            COMSOL 5.6.0.401
% Date:               Jan 31 2022, 10:42
% Table:              Table 3: Tsense - Point Evaluation 1
% Time (h)               Temperature (K), Point: 402Temperature (K), Point: 418Temperature (K), Point: 426Temperature (K), Point: 434Temperature (K), Point: 449Temperature (K), Point: 453Temperature (K), Point: 550Temperature (K), Point: 554Temperature (K), Point: 582Temperature (K), Point: 594Temperature (K), Point: 602Temperature (K), Point: 606Temperature (K), Point: 614Temperature (K), Point: 626Temperature (K), Point: 645Temperature (K), Point: 649Temperature (K), Point: 823Temperature (K), Point: 850Temperature (K), Point: 859Temperature (K), Point: 985Temperature (K), Point: 1906Temperature (K), Point: 1950Temperature (K), Point: 1988Temperature (K), Point: 2033Temperature (K), Point: 2061Temperature (K), Point: 2091Temperature (K), Point: 2288Temperature (K), Point: 2526Temperature (K), Point: 2657Temperature (K), Point: 2745Temperature (K), Point: 3057Temperature (K), Point: 3104Temperature (K), Point: 3119Temperature (K), Point: 3135Temperature (K), Point: 3143Temperature (K), Point: 3151
0                        272.9943618791996        272.99721965648024       272.9971218857438        272.9971567251537        272.9964670755583        272.99645981881673       272.99440667202424       272.99434174900216       273.0016843395275        272.99948071141495       273.00035988886157       273.0013869415103        273.00230632675          273.0012754968394        273.0006980281448        273.00055344512924       273.0017537058902        273.00108875404464       273.00258676253105       272.99671096323095       272.99684892307124       272.9967938446508        272.9968835633135        272.99870400755714       272.99834363752444       272.998500680657         272.97460623433193       272.9988256811408        272.97374515297014       272.9968759506784        272.97347573402453       272.9968409495064        272.9969039557366        272.9942105079347        272.9942301015022        272.99411576208547
1.5                      246.97761433630123       258.280018949653         257.94976032486306       257.932518649827         249.00731649763281       248.87789850942238       250.24909207059332       250.13451478930372       268.7800884710763        263.2233898478094        268.8020673717388        278.6046901532303        284.46247441832577       282.6420674922011        269.9292168818161        269.60831481914414       277.79115127621066       278.4258569193154        277.926386978559         258.2430148294571        236.2094018791811        237.95873450997865       237.32284986060807       263.94312055755444       263.3258327343831        263.9077827547796        256.664489534249         243.1554961729628        255.7681730646098        241.28980193111028       255.70564807004612       260.121981993052         256.4043458981303        255.49537219103235       247.06066657088743       246.50128901767113
3                        247.7088439821594        253.92185876628966       247.47496444519422       247.0894408718674        239.05630687544863       239.00915164804672       243.79846170141855       243.7402321966848        261.97244893257744       257.11207841522014       263.2842427847728        274.5832873532343        279.53764827954853       278.26069483338915       263.7867826883375        263.6488868345584        277.95436562937226       280.5514144425991        277.2909113961021        252.23379094733454       217.39147850443928       219.61671054551556       218.8652877512565        255.64205491738812       254.73411913763834       255.62503908965385       248.33035846228967       232.991776627565         247.35273803169022       233.73762214818913       247.6108642805982        254.32670341134096       253.64723143695574       247.70102105764724       246.96994669018633       240.34487454196838
4.5                      240.59434349718217       242.38454680362906       240.08452431886977       239.49161385355018       233.7282964992265        233.714225765814         231.22640039291323       231.1826695742593        246.6107213703557        244.14199941147186       245.54116726878124       249.29363390003115       252.55521972347069       251.95194741547525       240.5014276630422        240.52377349862488       264.309347602797         266.6310463031461        264.03924059583966       235.68855594447524       205.74713871411342       208.0919432863705        207.3346849953643        248.31196030559514       247.2515408848942        248.32006116141102       241.59821574159906       227.65379153744806       240.62157557498912       218.9842547205446        241.00423022715952       238.11429132769294       242.64641022145233       240.36489907623306       239.92822489844121       237.14181892758265
6                        237.78527315576738       237.99326790846513       237.10330673579136       236.33952417126758       230.31880987322015       230.3139605577264        226.06762575767354       226.02927509332207       240.40112941514937       238.5229223427433        235.95937092309237       237.1823520069968        240.48945006744898       240.1200745027847        229.28381059504514       229.35426119322648       253.18122304691744       255.35268819382102       253.24975793891653       225.079869125237         197.4239708525883        199.77643372569875       199.04460483701286       241.73883318970093       240.58614296501077       241.77097777153304       235.72294918865802       224.32991423540005       234.7359559886441        211.33101537741896       235.21882250780152       227.7427541309349        238.52179795723822       237.41472938875975       237.0674114709038        235.56342789178956
7.5                      236.8255492398238        236.532225271438         236.04261637346247       235.15702116185673       228.27389121467354       228.27147933815473       224.21638508937093       224.1798462868846        238.22753343622364       236.2937340279445        231.15466140880156       231.4234298673567        235.12474272881607       234.84303125208703       223.88499887485858       223.97590954133972       244.64338744103867       246.76191736023063       244.9865684005897        218.581938982032         191.68885196235604       193.9916354088941        193.29433628898735       236.01005863086888       234.80780932009856       236.06213917457453       230.6368692976366        222.4676762685585        229.62569780944378       207.72080234631102       230.1998608174575        221.40940379327418       237.18503413308025       236.37784300954982       236.0367869515464        234.8594050856352
9                        236.4240169377128        235.92739120009497       235.57460356266213       234.60004001010967       226.9108990813968        226.90940749698711       223.4156426603581        223.37991718856418       237.30343023472392       235.23152335246314       228.35069713049597       228.10727624755654       232.1584785809795        231.91982498391886       220.70163700430865       220.8049798611509        237.81911519940525       239.93975189490084       238.39506183846063       214.15010086701452       187.4031125755639        189.63856348152453       188.97444343551686       230.91093888541323       229.67983918664706       230.9790114733321        226.07768784117093       221.3136075807373        225.03410003523413       205.7291929251402        225.69438584891208       217.1034119019956        236.64839709364034       235.92876542597378       235.57715486277598       234.48290374758062
10.5                     236.25086467752578       235.66712914338646       235.35683134337825       234.3169595848209        225.97797330809198       225.97687605656134       223.0656094404272        223.03032355031536       236.90284041351987       234.70858251547895       226.6620941736837        226.11272979632497       230.4270299562516        230.2099655301443        218.71570123310957       218.82721694505534       232.3407984072882        234.50080136423975       233.11633329200748       211.06181076996464       184.14428610799663       186.30774561747563       185.6727384215124        226.3625383193217        225.1151032600823        226.44293993369573       221.95577389235947       220.58738302442964       220.87454668201752       204.59393045444415       221.61618554887048       214.11331881309147       236.42695190416413       235.725654644042         235.3608974316287        234.2687571564456
12                       236.1727019568216        235.54852253231775       235.2479269652225        234.15910776137332       225.32095373353323       225.32004817153393       222.91024510413698       222.8752543903532        236.72354327060813       234.43975619888514       225.6158581397034        224.87143108880358       229.37198549876916       229.16537297559412       217.41867681112808       217.53575383923345       227.92377025340642       230.147499318277         228.87179784601992       208.87219544453654       181.63020388265147       183.7235154347471        183.1128245946549        222.29535186140822       221.03908299529425       222.38488199526972       218.20608782026125       220.12189374145547       217.08424548126345       203.92439577856658       217.90260547431828       212.00105218984038       236.33154399264322       235.62801428572206       235.25159571979628       234.13780179521018
13.5                     236.12865124463994       235.48048295813442       235.18002279241253       234.0509142291071        224.80308464471733       224.80229828844796       222.82608467607824       222.79133465622326       236.624160570676         234.27192681449975       224.86856255752153       223.98026039306572       228.62396519966708       228.4230258876003        216.44658236499373       216.56789980257034       224.11536793708686       226.41483596782845       225.2200424164495        207.14763013440776       179.52387256119638       181.5499783383003        180.96039148136435       218.5240192550372        217.2623705566968        218.62076368370688       214.6808046059989        219.7820542519354        213.51705654959562       203.46236530673065       214.40884874594488       210.342067229461         236.2798871721358        235.5694527847872        235.18291851193968       234.04272810513424
15                       245.1249367010287        245.20712894752955       245.1557108992817        244.30613175133502       241.007086839452         241.00220472636386       223.27485984595103       223.24772047870735       247.1691899338061        247.2485840246448        225.49258449141206       223.6152276580728        228.20320921563058       227.985763832512         215.83809932926937       215.96320068584808       221.01621172813626       223.1551447879039        222.25264551380317       205.90921047466898       177.8980550010195        179.86760686509444       179.29283617616994       215.15577210049398       213.85010522824822       215.25386752619565       211.64903545767828       223.31286042473369       210.2531280698085        206.04150322722026       211.37865350448345       209.1598109456197        245.25452535671923       245.11196297705197       245.3145903782509        244.11447918891486
