% Model:              PicC_fullinst_init.mph
% Version:            COMSOL 5.6.0.401
% Date:               Apr 10 2022, 12:04
% Table:              Table 1: Tsense - Tsense Eval
% Time (h)               Temperature (K), Point: 950Temperature (K), Point: 955Temperature (K), Point: 1264Temperature (K), Point: 1283Temperature (K), Point: 1353Temperature (K), Point: 1469Temperature (K), Point: 1480Temperature (K), Point: 1484Temperature (K), Point: 1716Temperature (K), Point: 1754Temperature (K), Point: 1825Temperature (K), Point: 1826Temperature (K), Point: 1933Temperature (K), Point: 1988Temperature (K), Point: 1989Temperature (K), Point: 2928Temperature (K), Point: 3088Temperature (K), Point: 3338Temperature (K), Point: 3339Temperature (K), Point: 3464Temperature (K), Point: 3467Temperature (K), Point: 3567Temperature (K), Point: 3653Temperature (K), Point: 3719Temperature (K), Point: 3724Temperature (K), Point: 3732Temperature (K), Point: 3749Temperature (K), Point: 3872Temperature (K), Point: 3880Temperature (K), Point: 3996Temperature (K), Point: 4004Temperature (K), Point: 4026Temperature (K), Point: 4161Temperature (K), Point: 4200Temperature (K), Point: 4213Temperature (K), Point: 4220Temperature (K), Point: 4339Temperature (K), Point: 4347
0                        273.99959812154344       273.9994582664826        273.99952520759217       273.9994798376355        273.9999306199277        273.9999228383878        273.9999450209845        273.99989911711344       260.0012922095513        280.00000371783057       280.00000517753796       280.0000012180669        280.00000398196033       280.0000045917498        280.0000070067729        280.0000033750577        280.002141960462         274.0009578936973        274.0009529603056        280.0017802965056        260.0017529234858        260.001314795326         260.00141998971475       273.9990691010963        260.002504430735         260.00251094092476       260.00137642799194       260.00183214062736       260.00183256729883       260.00142229470526       260.00142681155944       274.00216562043244       259.99954747234534       260.00001379302165       250.0015036224019        250.00148264889083       250.00199597783455       250.00201431000266
1.5                      273.70627787056907       273.8137687591471        273.83079830972116       274.009642126408         273.7184816160346        273.6988654008133        273.6675776757706        273.5483519650773        268.99672716873437       279.7844627570021        279.7461158248019        278.51158805544463       279.8267154868179        279.82424782672757       279.8212632670994        279.6868459235231        277.25209107504816       276.397781896029         276.4446637730367        276.9330375103956        268.87517256695605       267.7501449795964        266.19528080876654       267.6158585158545        266.62762616272397       266.6342953645469        263.8325278194197        263.68893865058965       263.78290664370843       260.98046966366195       260.9830492256134        269.0794560322838        249.64782472451702       259.93294440501404       250.6519090297849        250.71521666340843       251.85213188494498       251.89712522359693
3                        274.2251998371788        274.82358955425565       274.0582565708159        274.801571135316         273.70684128245296       273.5661721066157        273.593857683478         273.36915219343916       272.67954943959063       279.48712287199305       279.3953605222388        277.01068653391866       279.60163400205784       279.58465507396403       279.58591477510674       279.2728846291196        274.7501417604776        274.6339057389437        274.9291639236095        274.2137322547488        273.0940033545071        271.6632062460171        268.6662310225132        266.9243379193055        267.8071371564064        267.9878224612529        265.5674617818695        265.05531852282024       265.3606798949669        261.83916211717303       262.1213228794818        263.86079026581507       245.35606682365128       259.3808501821164        250.5815940753324        251.034236686079         252.97281168954785       253.03163310139837
4.5                      274.0435556435654        275.09312366611874       273.48695202745665       274.9939247648146        273.44717985034043       273.4184940007219        273.60268109429654       273.27381539437596       273.32770332993124       279.19204278314885       279.0436416277191        275.5885082052001        279.37815336314196       279.3406223402202        279.35368802492656       278.84800198295477       273.7782108413169        274.1580650103605        274.6846339945055        273.13767926023405       274.44214292770016       273.0310215892779        269.15405271414255       266.7289955258421        269.08389216758513       269.5610303501913        266.29817411804174       266.4441503002022        267.02931497472065       262.9743957876204        263.6808683853415        260.5397070228739        243.58144805012134       258.846550044698         250.2940901955058        251.10106789481105       254.884718612301         254.14505477890015
6                        272.9437972723544        274.15665513915025       271.9036136858199        273.9809349767531        272.6466384838299        273.10907248860315       273.47739349277117       273.0591998590281        272.07881818256874       278.90780262778424       278.703735351529         274.2345811314693        279.1612403388993        279.10134831900854       279.1300111545872        278.429563633534         273.3233461140795        274.30280547106975       275.045211512314         272.66515924680806       273.6063370544801        272.3526288499686        268.25795475993067       265.7408142970222        270.03376400333644       271.17459585339395       265.6985115374867        267.4118181842539        268.71206672669126       263.9159554346459        265.45876009367737       258.25024606987546       242.88212652872957       258.37152070622847       250.21465480444763       251.0976129932003        265.649632971089         255.81547203414067
7.5                      270.5283915212298        270.87356820811283       269.40645237926515       270.9718866081367        270.8743890689734        272.5097792522426        272.9039942859411        272.4618563494591        268.76707943776563       278.5982104119537        278.3391146608197        272.8757569877964        278.9194333497314        278.84137144299          278.87325292595114       277.98611361434274       272.13885605202427       273.1714462255694        273.4382435682869        271.2041544582327        269.24750885370656       267.7593908531748        264.72464498501205       261.37953206468546       267.61122783148323       268.21666193570076       260.44338062581915       265.0861984945234        265.7577730589459        261.8360435940374        262.70779552481383       255.45328394555975       241.33521730578562       257.6712420000466        247.80478781214887       248.05109943829996       257.09209159425353       253.96510820327234
9                        268.52876854059696       268.64251007623955       267.1878369544429        268.3235812327195        269.04883820080687       271.7588187496998        272.13594384894617       271.6801167809595        266.2403939341697        278.26707682213237       277.9530699783291        271.53204178878497       278.6579723861276        278.56366802014475       278.59478946101285       277.5198272354393        270.83326648655725       271.84542846918436       271.937885526523         269.7125104240785        266.4001759936132        264.82422592867704       262.00845077928227       258.3186087919468        265.5316383452916        265.8492883731279        257.08518079361164       263.01405676562433       263.34032009473617       259.93421131853876       260.3979423582108        252.82709928387203       240.03223977672835       256.8814622242212        246.10407713886178       246.18639576720702       253.4947739667064        252.47411767991935
10.5                     266.9541039979972        266.99546618206455       265.27892322676337       266.1107788187104        267.28022558436044       270.9100836015404        271.25127015566926       270.7889069402612        264.31315025629726       277.9188231858899        277.5499734068063        270.21181120179347       278.38061660176555       278.27136874736067       278.300298859975         277.0345696648476        269.56673074806605       270.65446069171225       270.6841436803314        268.34195351687623       264.35167729205614       262.75919407960765       260.01268469432904       256.24429555548744       263.91903914832886       264.10303333579407       254.8735406919423        261.3865126839773        261.543571626286         258.42486409034774       258.67204569154813       250.5110931387044        239.01253732162257       256.0490765227086        244.9671018455141        244.99704021474616       251.68805874987237       251.3666688650773
12                       265.7055092509841        265.72121684258843       263.6542407728254        264.28454482862827       265.6177202845404        270.0061004487039        270.30430210995576       269.84194251400953       262.80131789312605       277.5572107050325        277.13379304273764       268.9188741140453        278.0902686085543        277.96716894993136       277.99338540038366       276.53426778616216       268.38311561876844       269.6576973635601        269.66462139468007       267.1091459615924        262.7934819870009        261.21694091084004       258.5260474778           254.80504702888632       262.6852839880289        262.810058340443         253.36947757948312       260.15141531557606       260.228828065576         257.283379847332         257.4206498990575        248.53219441949398       238.23812709406445       255.2036697880009        244.20544070455608       244.2156829745779        250.6616179165368        250.56707138821156
13.5                     264.6994247271813        264.704325919666         262.27555779648486       262.7742005546434        264.08179807750986       269.07883758242804       269.3326565046274        268.87681772189626       261.58863323115503       277.185265970684         276.70779274798764       267.6549334433134        277.78923530290007       277.65326967524834       277.6765603096564        276.0223880122478        267.2874975337067        268.8301859228569        268.8280193034151        265.9964379145726        261.5662395622145        260.01965635888797       257.39094608663027       253.76797413279488       261.7251958216556        261.8232177617978        252.30723074058113       259.21242920568915       259.25226519222554       256.4275091689295        256.508695299307         246.86674962241833       237.65569703298235       254.36330609341815       243.6819803355449        243.68331158204975       250.01358437034332       249.98940026202604
15                       263.87928292841883       263.8792105238272        261.10666000016977       261.51929027085237       262.67940805439105       268.1516808280073        268.36247940123036       267.9195045783234        260.60508827659993       276.8054294033079        276.27461393208563       266.4207662409641        277.47941815022364       277.3314781599992        277.35175268552575       275.50188311261985       266.27522537924835       268.1360891862684        268.129969071222         264.98484675100036       260.5831130936931        259.07207848024535       256.50823260979763       252.9980625059046        260.9634779229138        261.04880713995493       251.53475225950066       258.49111067598585       258.5131878088988        255.78340423887943       255.8356895686831        245.47552074243916       237.2185923241306        253.53922313572158       243.31232241916155       243.309435566831         249.5726849754543        249.56838116180532
