% Model:              PicC_fullinst_union.mph
% Version:            COMSOL 5.6.0.401
% Date:               Jun 17 2022, 11:29
% Table:              Table 1: Tsense - Tsense Eval
% Time (h)               Temperature (K), Point: 950Temperature (K), Point: 955Temperature (K), Point: 1264Temperature (K), Point: 1283Temperature (K), Point: 1353Temperature (K), Point: 1469Temperature (K), Point: 1480Temperature (K), Point: 1484Temperature (K), Point: 1716Temperature (K), Point: 1754Temperature (K), Point: 1825Temperature (K), Point: 1826Temperature (K), Point: 1933Temperature (K), Point: 1988Temperature (K), Point: 1989Temperature (K), Point: 2928Temperature (K), Point: 3088Temperature (K), Point: 3338Temperature (K), Point: 3339Temperature (K), Point: 3464Temperature (K), Point: 3467Temperature (K), Point: 3567Temperature (K), Point: 3653Temperature (K), Point: 3719Temperature (K), Point: 3724Temperature (K), Point: 3732Temperature (K), Point: 3749Temperature (K), Point: 3872Temperature (K), Point: 3880Temperature (K), Point: 3996Temperature (K), Point: 4004Temperature (K), Point: 4028Temperature (K), Point: 4163Temperature (K), Point: 4202Temperature (K), Point: 4215Temperature (K), Point: 4222Temperature (K), Point: 4341Temperature (K), Point: 4349Temperature (K), Point: 288Temperature (K), Point: 293Temperature (K), Point: 494Temperature (K), Point: 495Temperature (K), Point: 551Temperature (K), Point: 648Temperature (K), Point: 750Temperature (K), Point: 940Temperature (K), Point: 941Temperature (K), Point: 1298Temperature (K), Point: 1299Temperature (K), Point: 1516Temperature (K), Point: 1517Temperature (K), Point: 1749Temperature (K), Point: 1861Temperature (K), Point: 1863Temperature (K), Point: 1916Temperature (K), Point: 2059Temperature (K), Point: 2080Temperature (K), Point: 2083Temperature (K), Point: 2122Temperature (K), Point: 2123Temperature (K), Point: 2149Temperature (K), Point: 2151Temperature (K), Point: 2195Temperature (K), Point: 2196Temperature (K), Point: 2269Temperature (K), Point: 2270Temperature (K), Point: 2375Temperature (K), Point: 2395Temperature (K), Point: 2408Temperature (K), Point: 2415Temperature (K), Point: 2597Temperature (K), Point: 2598Temperature (K), Point: 2825Temperature (K), Point: 2836Temperature (K), Point: 2876
0                        273.9992502395285        273.9990092698284        273.9993914531484        273.99934593512296       273.9999107763214        273.99990409030016       273.99994001381344       273.99989134309936       260.0014495497821        280.00001015014783       280.00000848788363       280.0000058559639        280.0000172634739        280.00001576373086       280.0000196864826        280.0000099187433        280.00258088548196       274.00073656744695       274.0007237336593        280.002063863086         260.0018094750484        260.00130994375405       260.00131046268945       273.9989213713977        260.00264052969277       260.0026458066262        260.0011776106846        260.00183989032774       260.0018422829751        260.00132098146975       260.00132489944417       274.00378280565565       259.9986214058567        260.0000015433662        249.99983232513108       249.9998081139447        250.00113082018564       250.00114493278184       259.8861466480792        259.92342418607194       271.7179538767103        271.7295000775309        273.2932310025894        280.0000003438364        279.99971403845547       272.951710226279         273.0039681198108        259.90637660813417       259.9179040406856        280.00000367862765       280.00000985839694       280.0000367335946        260.0014927620777        260.0014719843193        280.0001576148369        273.99989777854967       260.00132681285913       260.00141988921376       260.00180106840224       260.00178220238706       260.00127341837805       260.00123217063145       260.001284217435         260.0012641397527        260.00133730971714       260.001165281904         274.0017080111492        259.9998085643892        259.9992119074046        259.9991996253207        259.99948629981606       259.9994463865339        263.37368098886157       265.81406495643824       263.53492261257225
0.25                     272.17986782012997       272.0673087479318        273.2639734600015        273.26548527211366       273.67935157845784       273.89034015204453       273.88053983800063       273.8496588509317        261.2384761545611        279.994738576432         279.99166034580645       279.78538706513774       279.99703969631815       279.99451470508717       279.9938353542925        279.98260589453406       280.2928783981161        276.2280926445985        276.1661830988497        280.19694445146587       261.07359211947767       260.50155507770506       260.0829873951251        269.87479104265134       262.1933900898266        262.21079926534406       259.4531085524932        260.2108114104971        260.21484722659056       258.7206272634223        258.7024039604477        274.2836335699406        253.635740647578         260.18900319120075       245.3431960135692        245.2378066747669        245.2173769813894        245.23753815208823       267.9287175613221        267.66910279671987       264.7316359156982        264.58510920378774       271.0874987329717        277.5611671884311        278.7027570786483        271.03809865064835       271.02216374968367       268.85591210440015       268.7094751018456        277.5867739591159        277.58601650638485       278.52209223671633       261.44423248491916       261.0001403174817        278.7936748749877        264.6902467621801        260.5828600257449        260.5417980357476        261.4125510438137        261.2606663597419        259.243751963843         258.8549887934088        259.92519380069353       259.76225849669936       258.8580207344303        258.6876372509178        275.0052234594095        273.57751483801616       255.25780067027654       255.058728451239         254.44832721835593       254.3196402641696        263.8256873108233        263.7931464978042        262.37367025021695
0.5                      270.65493674387847       270.51380783730815       272.5709140608695        272.5719278812149        273.3188826999916        273.77028466007977       273.7502172132455        273.6836795604632        262.11264028864844       279.9727540172942        279.96347906984596       279.55363093055706       279.9830534975608        279.97629991226574       279.97481835742917       279.94675679540507       279.9582390014843        276.85230737222275       276.7595888019973        279.6927088923789        261.59659631349354       260.56845278309186       259.5515700222809        266.16517115144603       262.11527171562204       262.12435129805306       258.0959932201947        259.0004913598774        259.0055846566822        256.53826509810153       256.4969830863077        273.01797228255356       248.09098835503488       260.21189577321445       241.279523194358         241.14942000188162       240.88596503816456       240.91947852382555       268.27227110325657       267.93092786082065       264.9250325392743        264.6493048415887        271.0870569830029        276.45864595642104       277.6430472675377        271.019717747494         270.99920245537396       268.8199705422667        268.6360371046005        276.489122308707         276.48178014132674       277.38097927686374       261.37314260793823       260.57474244550286       277.73876745369887       262.65448359244084       259.48947327240495       259.4219927507921        260.8611289963091        260.57160409826446       257.1526889066567        256.43797534246704       258.33783386470685       258.0298402459722        256.3802956450631        256.0690725263232        274.8214231315826        278.93407569652015       251.40180923241272       251.14979749279976       249.55788034183055       249.31586186918344       264.96490846015826       264.9310309518042        263.2337460603664
0.75                     269.49311495642604       269.39434552790163       271.9287518826389        271.95558259475234       272.94397141278444       273.63643307723277       273.60977300806934       273.50233843471784       262.643874221015         279.9381996126874        279.92089900351675       279.311920746775         279.96104232537954       279.9490929779123        279.94704818304865       279.89714462006873       279.40473667917024       276.5753462844213        276.4919792767706        278.984177028974         261.92422051934767       260.54393026002396       258.8994469250133        263.3071616521701        261.3510107527692        261.3547253221968        256.7106629049655        257.591571857516         257.61093619530016       254.4747421219669        254.43181017548258       271.49346960481023       243.60051942552542       260.14165640667636       238.04691225989814       237.9517433332916        237.4447785044956        237.48482350753582       268.1372000113724        267.830526516242         264.9696417938276        264.680246722336         270.8931321859412        275.6374177346749        276.8089351008574        270.7962907000373        270.78210425383287       268.30551431374334       268.1618134265107        275.66020108807123       275.6489675341705        276.50994259599963       260.76726758165836       259.8056777610182        276.89240806691424       261.1348554799552        258.13009134748575       257.9341538723379        259.7330847909294        259.39556423012874       254.8375088176101        253.98122849842696       256.45579672563105       256.10335800941897       253.7489622864632        253.39639315716238       274.43563428358755       281.39981634593437       247.8982355347967        247.72403950002146       245.28085990882042       245.0048751337121        265.6634045834766        265.63436490830816       263.73338657929963
1                        268.4024851797078        268.3594746636616        271.29664853675195       271.3547216871722        272.56629143885795       273.49981185650785       273.4673187912548        273.317941585505         263.1065419451121        279.90120053973294       279.8755214268653        279.06830952686835       279.93747116899374       279.92013928700646       279.9175827301948        279.8448524776168        278.8111900586063        276.129432026032         276.06323849197656       278.2391275257364        262.21350716143525       260.5016064130042        258.2256856071002        260.6187785265576        260.463294603106         260.4624950830423        255.32430449666293       256.15140866313544       256.1877780262887        252.4408360442852        252.40070495135328       269.9235725353843        239.31846557094974       260.05354172987563       234.97900185645116       234.9300109504778        234.18120102958838       234.22645686560045       267.6817348667643        267.5123256387348        264.6959588231887        264.50909357367766       270.4879161275613        274.9906948278013        276.1378428821491        270.3674892299045        270.37219470019454       267.59491952772385       267.5760165615196        274.9984357767575        274.9895810768434        275.82613209441536       259.8371460992413        258.98945503469605       276.20649459705413       259.9205764301253        256.8656324453988        256.3749394320503        258.3668617362365        258.13592341488055       252.6224048048083        251.90045469034405       254.60174431014323       254.38269255410592       251.32640244571127       251.10118638589557       273.8328515917691        282.1311690660226        244.95203786365713       245.01592149138386       241.91953854565836       241.7545076631635        265.8864619786964        265.8691198693264        263.83674685712447
1.25                     267.57189622258267       267.61052469299744       270.7063309869074        270.8321867995377        272.17928156123827       273.3467984854407        273.3160929315146        273.1179132075712        263.2900242775301        279.8568455518367        279.8215547924452        278.82256016561735       279.9092049652238        279.88566312730154       279.88324614944685       279.78353757540134       278.2575887032204        275.54391832775633       275.5143668133136        277.56796195753975       262.3433651272293        260.39963525017333       257.59041331892865       258.66740059102347       259.649029517226         259.6629566749772        254.18333281441383       254.95924971158806       255.02714478873935       250.8068871243575        250.79840241357138       268.4028947887805        235.9479017604943        259.9154804072733        232.62913693595212       232.64715722599942       231.70982416272702       231.75856841084098       267.19903691208305       267.1757955920709        264.3936149116273        264.31944342513134       270.06413941773326       274.3587070373209        275.4806867163677        269.9207334407707        269.94543781228367       266.8685659641451        266.98189329084903       274.3507905573535        274.34488175737545       275.1582727780159        258.8797554404948        258.17065456543344       275.53436652673435       258.73200492049693       255.6113320165368        254.8110137143643        256.9815756744709        256.87107830166906       250.417748570129         249.8547383437428        252.75182595979948       252.6821187392753        248.92399780578725       248.8412518580413        273.21100637904175       282.7166612916283        242.0557033403861        242.3718397382554        238.63991588465225       238.5988570272541        266.06774695049177       266.0627038060277        263.90527437921344
1.5                      266.88094499055836       267.0151096296613        270.1384517354424        270.3517117210459        271.7872616758469        273.18498279408055       273.16015684102894       272.90949095088445       263.3235885584803        279.8085405562836        279.7629759725634        278.57566265695726       279.8784175967499        279.8482214909408        279.8462938516017        279.7173775967495        277.72543731083164       274.8834419823024        274.900986782614         276.93647087055245       262.38761246578287       260.2656344409921        256.975809018817         257.11178255307453       258.87420646767293       258.9131922848874        253.17412984543714       253.90026503759756       254.00748320429048       249.38770874597023       249.42636000084374       266.908647024518         233.06679339942664       259.75059854162305       230.66485085617023       230.76106942133728       229.66384624247812       229.71515399047303       266.63110215842556       266.79866226535717       263.9108826489756        264.0035364689566        269.56565608499886       273.79372625040247       274.89710680656043       269.4090802315689        269.4621529422684        266.2052109918944        266.5016763753659        273.7711650867309        273.77686325323583       274.56788768862987       257.9658051192782        257.62232131081635       274.94684226848443       257.77391250930935       254.7297300600961        253.5118877333912        255.87841727963547       256.01876728135557       248.68799633593616       248.49665644217228       251.34277618716013       251.5788255661005        247.13043509969322       247.33573898712132       272.55262225379886       282.8296180597404        239.889929420554         240.5646714126122        236.3682937535495        236.58090605719724       265.9366959058221        265.94628101727363       263.72312384588116
1.75                     266.1899937585341        266.41969456632523       269.57057248397734       269.87123664255415       271.39524179045554       273.0231671027205        273.0042207505433        272.7010686941978        263.35715283943046       279.7602355607305        279.7043971526817        278.3287651482971        279.847630228276         279.81077985458          279.80934155375644       279.6512176180976        277.1932859184429        274.22296563684836       274.2876067519144        276.30497978356516       262.43185980433645       260.1316336318108        256.3612047187053        255.55616451512563       258.09938341811994       258.16342789479756       252.16492687646038       252.841280363607         252.9878216198416        247.9685303675829        248.05431758811613       265.41439926025555       230.18568503835903       259.5857166759727        228.70056477638835       228.8749816166751        227.61786832222916       227.67173957010507       266.0491106740855        266.4148328944542        263.398401844614         263.66680801358206       269.0548525937061        273.239795847992         274.3256606421224        268.8867245374446        268.969545823764         265.55224536136365       266.04024419813123       273.20275701635325       273.22149047937404       273.99027917411587       257.059018712389         257.11859185221715       274.37327035259443       256.85382929900294       253.90959125238433       252.25643090269728       254.82178565117076       255.23448885624651       247.03656235999708       247.25197500047346       250.00643175936779       250.57403225709876       245.43727887524724       245.9546407138874        271.88821235496005       282.86464717519823       237.84463507965052       238.89552172206714       234.26290489430798       234.75057754589866       265.75413631884834       265.77873381861826       263.4996330234317
2                        265.4990425265098        265.82427950298904       269.00269323251234       269.3907615640624        271.00322190506415       272.86135141136043       272.84828466005763       272.49264643751104       263.39071712038066       279.7119305651774        279.6458183327998        278.08186763963704       279.8168428598021        279.77333821821924       279.7723892559112        279.58505763944567       276.66113452605407       273.5624892913944        273.6742267212147        275.67348869657786       262.47610714289004       259.99763282262955       255.74660041859363       254.00054647717667       257.324560368567         257.4136635047078        251.15572390748366       251.78229568961646       251.96816003539277       246.5493519891956        246.68227517538847       263.9201514959931        227.3045766772914        259.4208348103224        226.73627869660646       226.98889381201292       225.57189040198017       225.62832514973718       265.46711918974535       266.03100352355125       262.88592104025236       263.3300795582075        268.54404910241317       272.68586544558156       273.7542144776844        268.3643688433202        268.47693870525956       264.899279730833         265.5788120208965        272.63434894597566       272.6661177055122        273.4126706596019        256.1522323054999        256.61486239361795       273.7996984367045        255.93374608869652       253.08945244467256       251.00097407200334       253.76515402270604       254.45021043113744       245.38512838405796       246.00729355877468       248.67008733157547       249.56923894809702       243.74412265080124       244.57354244065348       271.2238024561213        282.8996762906561        235.79934073874702       237.22637203152215       232.15751603506655       232.92024903460015       265.5715767318746        265.61118661996295       263.27614220098224
2.25                     264.8491064396917        265.27224464887666       268.43035551857355       268.9189748304562        270.60197136943526       272.691156844459         272.6877539815096        272.2773856196134        263.33569982349405       279.6622497650048        279.58557746344337       277.8360392236249        279.78515267750606       279.7347476347191        279.73457629768535       279.5168682469852        276.1721347074285        272.95167634660083       273.11104396476213       275.09663979778713       262.4558917180445        259.82636298171565       255.1347009538036        252.60239366448712       256.6322974676587        256.7529769573935        250.21863017428012       250.82937423106992       251.05834998925374       245.26662373842072       245.45510537731087       262.4831151198955        224.67644186000715       259.2462336601227        224.95365781473555       225.28617783871906       223.73974024746911       223.79965843625934       264.8851277054053        265.64717415264835       262.3734402358908        262.99335110283295       268.0332456111203        272.13193504317115       273.1827683132463        267.8420131491959        267.9843315867552        264.24631410030224       265.11737984366187       272.0659408755981        272.1107449316504        272.8350621450879        255.2454458986108        256.1111329350187        273.22612652081455       255.0136628783901        252.2693136369608        249.7455172413094        252.70852239424136       253.66593200602836       243.73369440811885       244.76261211707586       247.3337429037832        248.56444563909528       242.05096642635525       243.19244416741955       270.5593925572825        282.9347054061139        233.75404639784355       235.55722234097712       230.05212717582506       231.08992052330163       265.3890171449009        265.44363942130764       263.05265137853274
2.5                      264.29430514314475       264.8208303603062        267.8476763834295        268.46734074690994       270.1793103043542        272.5015274428562        272.5165661379194        272.0462627321488        263.0752172091727        279.6093777806181        279.52148146380773       277.59269057220524       279.7513684150068        279.69349206382003       279.694767034329         279.44397162123124       275.78322513349684       272.45605785454535       272.66429398292684       274.64653366896397       262.2861546605075        259.5686474754338        254.52907536515718       251.5694820597661        256.1315331555426        256.29890681598715       249.44879409644824       250.1224668169956        250.40334101734166       244.30039209414747       244.563968177473         261.17878078317517       222.6350801703345        259.0490885912668        223.59241007237225       224.00879354793489       222.40356443476387       222.46909987170017       264.30327090031074       265.2450309105579        261.7975548553937        262.5876428732354        267.54613134639754       271.61711359221005       272.65537022108373       267.35411184965585       267.52385375734303       263.70663326976216       264.7555903262987        271.5423102403444        271.604226522751         272.30304287620277       254.4434899041381        255.76939529555415       272.7069309421797        254.22388230207582       251.67080832729562       248.71537546757457       251.95979228950068       253.2111038174812        242.46405165784063       243.94755800450616       246.38428175039022       247.97600113707253       240.85898700833093       242.33927249537578       269.99766324391106       282.91745202985305       232.2329782279635        234.41883567032605       228.6047400446993        229.9434339744782        265.0595186973868        265.1280265187216        262.7068815610624
2.75                     263.7395038465978        264.36941607173566       267.26499724828534       268.0157066633637        269.7566492392732        272.3118980412534        272.34537829432924       271.8151398446842        262.8147345948513        279.5565057962313        279.4573854641721        277.34934192078566       279.7175841525075        279.65223649292096       279.65495777097266       279.37107499547733       275.3943155595652        271.9604393624898        272.2175440010916        274.1964275401408        262.11641760297056       259.310931969152         253.92344977651078       250.53657045504508       255.63076884342658       255.84483667458073       248.67895801861638       249.41555940292122       249.74833204542955       243.33416044987425       243.6728309776351        259.8744464464548        220.5937184806619        258.851943522411         222.2311623300089        222.73140925715072       221.06738862205862       221.13854130714097       263.72146015015136       264.83662505431636       261.19998763648647       262.1583463096495        267.06711785316264       271.11566584418017       272.1430348143544        266.87799258008          267.0743628644705        263.2056913264986        264.42787462792086       271.03399170355357       271.1144143598563        271.7866133126231        253.6773817332929        255.4830524029723        272.206329904027         253.47866003411758       251.14809284202175       247.7622824646716        251.31635223621225       252.86893448147552       241.32496629262383       243.27941931814863       245.56711925981264       247.52993133582646       239.8383900865559        241.66663068343146       269.4710465990196        282.8823201248453        230.89117451852542       233.46194880194173       227.38236328367825       229.03079412619508       264.67977301497933       264.7617810457065        262.3192972000277
3                        263.18470255005093       263.91800178316515       266.68231811314126       267.56407257981743       269.33398817419214       272.1222686396506        272.174190450739         271.58401695721966       262.5542519805299        279.5036338118446        279.39328946453645       277.1059932693661        279.6837998900083        279.6109809220219        279.61514850761625       279.2981783697234        275.0054059856336        271.4648208704343        271.77079401925636       273.74632141131764       261.94668054543354       259.0532164628702        253.31782418786437       249.5036588503241        255.13000453131056       255.39076653317431       247.90912194078453       248.70865198884692       249.09332307351744       242.367928805601         242.78169377779724       258.57011210973445       218.55235679098925       258.6547984535551        220.86991458764564       221.45402496636655       219.73121280935334       219.80798274258183       263.13964939999187       264.4282191980748        260.60242041757925       261.72904974606365       266.5881043599277        270.61421809615035       271.630699407625         266.40187331050413       266.62487197159805       262.70474938323497       264.10015892954306       270.5256731667627        270.6246021969617        271.2701837490434        252.91127356244766       255.19670951039052       271.70572886587416       252.7334377661593        250.62537735674792       246.80918946176863       250.6729121829238        252.52676514546988       240.18588092740703       242.6112806317911        244.74995676923507       247.0838615345804        238.81779316478088       240.9939888714872        268.9444299541281        282.8471882198377        229.54937080908732       232.5050619335574        226.15998652265725       228.1181542779119        264.3000273325718        264.3955355726915        261.931712838993
3.25                     262.62990125350404       263.4665874945947        266.0996389779972        267.1124384962712        268.91132710911114       271.93263923804784       272.0030026071488        271.35289406975505       262.29376936620855       279.4507618274578        279.32919346490075       276.8626446179465        279.650015627509         279.56972535112277       279.5753392442599        279.22528174396945       274.6164964117019        270.96920237837884       271.3240440374212        273.2962152824945        261.7769434878966        258.79550095658834       252.71219859921797       248.47074724560306       254.6292402191945        254.93669639176792       247.13928586295268       248.00174457477254       248.4383141016053        241.40169716132772       241.8905565779593        257.2657777730141        216.5109951013166        258.45765338469926       219.50866684528233       220.1766406755824        218.3950369966481        218.47742417802266       262.55783864983243       264.01981334183336       260.00485319867204       261.2997531824778        266.1090908666927        270.1127703481205        271.1183640008956        265.9257540409282        266.1753810787256        262.20380743997134       263.77244323116525       270.0173546299718        270.134790034067         270.75375418546366       252.1451653916024        254.9103666178087        271.2051278277214        251.98821549820104       250.10266187147406       245.8560964588656        250.0294721296353        252.18459580946424       239.0467955621902        241.94314194543355       243.9327942786575        246.63779173333432       237.79719624300586       240.3213470595429        268.41781330923664       282.81205631482993       228.20756709964925       231.54817506517313       224.9376097616362        227.20551442962875       263.9202816501643        264.02929009967636       261.54412847795834