% Model:              PicC_fullinst.mph
% Version:            COMSOL 5.6.0.401
% Date:               Mar 6 2022, 15:42
% Table:              Table 3: Tsense - Point Evaluation 1
% Time (h)               Temperature (K), Point: 611Temperature (K), Point: 627Temperature (K), Point: 635Temperature (K), Point: 643Temperature (K), Point: 658Temperature (K), Point: 662Temperature (K), Point: 771Temperature (K), Point: 795Temperature (K), Point: 839Temperature (K), Point: 867Temperature (K), Point: 889Temperature (K), Point: 893Temperature (K), Point: 907Temperature (K), Point: 931Temperature (K), Point: 972Temperature (K), Point: 984Temperature (K), Point: 1283Temperature (K), Point: 1314Temperature (K), Point: 1325Temperature (K), Point: 1483Temperature (K), Point: 1501Temperature (K), Point: 2415Temperature (K), Point: 2561Temperature (K), Point: 2621Temperature (K), Point: 2667Temperature (K), Point: 2714Temperature (K), Point: 2753Temperature (K), Point: 2796Temperature (K), Point: 2993Temperature (K), Point: 3083Temperature (K), Point: 3142Temperature (K), Point: 3515Temperature (K), Point: 3534Temperature (K), Point: 3550Temperature (K), Point: 3558Temperature (K), Point: 3566
0                        283.0004828000806        283.00414836925046       283.0047746327645        283.0046765605909        283.0033503752014        283.00331399401045       282.99882086866876       282.9985642063025        283.00099572844715       283.00539105063245       283.0036353461085        283.0038375471742        283.0007650982129        283.0046615403364        283.00073474042006       283.0012340809199        282.99986566860156       283.00032198344496       283.0007517227812        283.0028880156659        283.00354755473245       282.9985417935083        282.9986613957944        282.99839732716885       282.99854554956966       283.0003033552433        283.000114877318         283.000167637288         282.90921564367954       282.9998423954403        282.9087404222427        283.0030293066939        283.0004423596804        283.0041480134086        283.00478650337243       283.0046740497101
1.5                      285.1717891743449        310.9595926281688        316.8844632689907        317.3972532617831        288.5986552466286        288.50219166578194       274.06724202061446       273.9647269948174        311.63348919004346       317.6721284414595        313.30971035823745       315.36068696304284       314.24245184357255       314.33277312031544       284.684839941134         284.5558156902414        282.28392905131534       288.3123822127273        282.3287087453063        273.1371571330689        293.15441560159877       272.35364864910053       253.56696707138028       250.83465340872576       253.01506932312566       284.0351416216879        283.17918447412285       283.9449394217308        198.52098303000662       256.6933969787394        196.9432729770589        273.50327737990375       284.8823946871095        310.7875922018401        316.6703914328299        317.0913068102899
3                        292.004553247361         323.5663274220534        330.94083898664394       331.3604039854172        291.3133048629181        291.18021277043306       277.5516127972529        277.39109507205694       325.2645620216305        332.27360961636106       329.2382519388567        332.60730336218234       331.52774538382727       331.64389217927226       293.4452255340811        293.1341606196514        285.0301089023116        296.9510333432569        285.00246570842756       278.159845187145         304.1003196301463        269.85038084044237       242.9842235460911        238.60730299338113       242.05730433218028       286.09570461491927       284.48875200190344       285.89931752672624       199.2942145698447        254.0934121043995        197.8231844303466        278.462316613577         291.66874018833136       323.4541600500338        330.7544993866207        331.0475982506254
4.5                      296.95772126713376       330.9603078120021        339.0267153145702        339.3730645965579        293.0681439555427        292.9463883746038        281.53322289732483       281.3819260535362        333.4843093933269        340.9951143899939        339.7683753319976        344.22192813346186       343.47482923410894       343.98445675209246       301.6728100783081        301.37848992341276       289.596286369969         306.3231904959305        289.5245312446635        285.4987524094855        313.3693921447202        270.26050696008343       238.61250674785944       233.13634628580243       237.42712351280974       288.5877064900672        286.4915048667568        288.3102313139998        202.3574250191422        255.5342436287789        201.40230179274263       285.82422379423207       296.63709919675574       330.9139923594497        338.89392029011077       339.1172575382097
6                        300.15894947953086       335.47192225071103       343.9706867117859        344.3178187256546        294.3065380478964        294.2113960074237        284.52547977845313       284.42838015476855       338.5136030966407        346.4093458750399        346.6646755758483        351.8535197759869        351.4341910098865        352.3941050872886        307.8817729160504        307.6657897351548        294.67743664014347       314.81526948102004       294.6046959688904        291.9787045822449        320.28884110856296       271.9051280686593        237.1392169762253        230.954232545133         235.79896265968114       291.2179645415508        288.85917638668684       290.89556046645384       205.02178492376657       257.5484531678772        204.63531376300284       292.40066075324216       299.8701162864036        335.47755037820514       343.8863830485613        344.1292438336127
7.5                      301.73112594339574       337.6617023158786        346.5107613526308        347.0160690188549        295.11069893308064       295.0428889162821        285.71781909551396       285.6690301014332        340.4946842515498        348.64062411380957       349.93839381140157       355.61762945612355       355.4366256468255        356.7082353866018        311.1835574171698        311.04340196253827       299.13887809828543       321.38287217873113       299.092666411972         296.1052019871451        324.41508546079206       273.9116205692703        236.98905037727434       230.35949842680523       235.56336736191122       293.77316669627515       291.3032488384212        293.4329409060834        207.04549232562613       258.93817759441004       207.13319662778736       296.6332710604235        301.46734024645843       337.6998256227636        346.4584296980848        346.8762616333925
9                        302.38310365163284       338.6038973730861        347.7120589264024        348.4069810424658        295.6336486629533        295.5838502057408        285.94423239130225       285.92132575848433       341.0474285362454        349.34199385083724       351.2656148189348        357.24814712422454       357.22161405690906       358.66271945508527       312.7087250073825        312.6142694741444        302.59806410465904       325.95785539735067       302.5866471815854        298.39507943632714       326.5658522331671        275.88929240916565       237.43700574692224       230.53664405852797       235.96523699681322       296.14156052075464       293.6515216550604        295.79884851969064       208.56895154391876       259.67861709933356       208.98796954515524       299.0002268904355        302.13272365947034       338.65741111708115       347.67474973446565       348.29266247245465
10.5                     302.7395345271998        339.153276352741         348.4253944672431        349.25273575935415       296.01130914015937       295.9710377203793        286.0397085374543        286.0291009943491        341.3972506626632        349.7829579548109        352.0524945887894        358.209292262992         358.2805042555051        359.813043047239         313.6321749520146        313.5610388139894        305.1685200120139        329.04378382778276       305.1890652387478        299.79950653844577       327.7775464830389        277.69655799741724       238.1261356325691        231.06393407851118       236.6289754841607        298.2877159632664        295.82695159507756       297.94992293795303       209.7827080374302        260.0908929521821        210.422787879604         300.4513051826853        302.4958047870526        339.21346852335427       348.3941602306917        349.15073337219593
12                       302.9770401575048        339.52945006055796       348.9061906491861        349.8255086944895        296.3053526415041        296.2699871650453        286.13072251349604       286.1258023710459        341.68515554776826       350.1238208710107        352.58548822490474       358.84345693951667       358.9757533854083        360.5574924995984        314.2576937448726        314.1983555829305        307.033146810988         331.08841475164996       307.0791366115763        300.7158458834502        328.50062342264135       279.2999275050005        238.88994020393412       231.7351893052205        237.37868127062364       300.20857090552386       297.80293864351523       299.87898504755276       210.79010956329594       260.34044261569113       211.58358195679475       301.39392509509605       302.7363292745917        339.59239257176836       348.8771914087984        349.7293515989408
13.5                     303.15444887387906       339.81007835622967       349.25753901589906       350.2452181852701        296.54636656132016       296.5135956030957        286.2268364096107        286.2245664204595        341.9287374102752        350.397917782182         352.9705086959887        359.2898918215508        359.4620381307313        361.0711472268247        314.71045213784487       314.6573792092015        308.3692711362399        332.4353322317098        308.43408941772185       301.3438879287002        328.9587545216339        280.70577981343695       239.6469473152287        232.4431896191011        238.12794399132582       301.9158563604733        299.5772594231686        301.595617686236         211.64856202359803       260.5073039834079        212.55520897313912       302.0365871182728        302.91494610753176       339.8740978975722        349.2292528846593        350.15194264200517
15                       303.29454781203447       340.0296539511379        349.5287164018227        350.5711097253373        296.750614443432         296.7193220184431        286.319970566882         286.3189764390484        342.1323897852158        350.6197902249718        353.2606951390972        359.62009430314015       359.82023374226293       361.44551896467334       315.054349954884         315.0049062421873        309.32500828138336       333.3290879689552        309.40322781293884       301.793360246451         329.26810431380744       281.93479434072145       240.3595631097889        233.13340069642283       238.83646170119766       303.4280898140079        301.16012255438983       303.1172304692473        212.3924685143382        260.6293252009378        213.38771346209276       302.4944936931474        303.05541748710465       340.09407105475657       349.5005814595437        350.47940475291114
