% Model:              PicC_fullinst_noearth.mph
% Version:            COMSOL 5.6.0.401
% Date:               Apr 19 2022, 09:57
% Table:              Table 1: Tsense - Tsense Eval
% Time (h)               Temperature (K), Point: 950Temperature (K), Point: 955Temperature (K), Point: 1264Temperature (K), Point: 1283Temperature (K), Point: 1353Temperature (K), Point: 1469Temperature (K), Point: 1480Temperature (K), Point: 1484Temperature (K), Point: 1716Temperature (K), Point: 1754Temperature (K), Point: 1825Temperature (K), Point: 1826Temperature (K), Point: 1933Temperature (K), Point: 1988Temperature (K), Point: 1989Temperature (K), Point: 2928Temperature (K), Point: 3088Temperature (K), Point: 3338Temperature (K), Point: 3339Temperature (K), Point: 3464Temperature (K), Point: 3467Temperature (K), Point: 3567Temperature (K), Point: 3653Temperature (K), Point: 3719Temperature (K), Point: 3724Temperature (K), Point: 3732Temperature (K), Point: 3749Temperature (K), Point: 3872Temperature (K), Point: 3880Temperature (K), Point: 3996Temperature (K), Point: 4004Temperature (K), Point: 4026Temperature (K), Point: 4161Temperature (K), Point: 4200Temperature (K), Point: 4213Temperature (K), Point: 4220Temperature (K), Point: 4339Temperature (K), Point: 4347
0                        273.9995977353091        273.99945777932794       273.99952480301073       273.9994794663853        273.99993058487496       273.9999227603755        273.9999450188706        273.99989911287696       260.00129211612347       280.0000037178369        280.0000051779869        280.000001218579         280.0000039819571        280.00000459211213       280.00000700695506       280.0000033727503        280.00189614541944       274.00046317630597       274.0004598644626        280.00166612169625       260.0017524421563        260.0013145080083        260.00141959299594       273.99906888713525       260.0025050671352        260.00251159003636       260.0013760226898        260.00183011873844       260.0018304988918        260.0014215358172        260.0014260249578        274.00216559216705       259.9995474519694        260.0000137912386        250.0015032664922        250.00148236097976       250.0019951905083        250.00201351685106
1.5                      273.4944426462284        273.5973837184724        273.7378214958347        273.9083729980006        273.58196622645903       273.67779454340774       273.64400613925034       273.4967532879358        268.8264964356122        279.77167978167165       279.72535092809386       278.49009615282824       279.81749411711536       279.80700807081035       279.803727810274         279.6642488653353        276.5954152416969        267.6215868158965        267.668259159156         276.0029700439701        268.5526078673363        267.2393143551729        265.4346957423463        266.13964700483655       263.0049682444239        263.00864285145906       262.44168735185286       259.8705757435587        259.9718537516492        257.0677160285315        257.0731562891127        268.6853786734357        249.33227439384638       259.8766618303186        250.04938701939432       250.11452132959317       249.1331767236797        249.18805795104606
3                        273.6071169212636        274.1960354645777        273.67131673094303       274.42251795031444       273.31597883625517       273.48299755122207       273.51614968380204       273.2093356966848        271.77794554045283       279.442878420681         279.3296867038167        276.9546661055496        279.5692464318873        279.5320831256986        279.5334906979958        279.1996450559642        273.8182271424547        262.55835867807787       262.85193318467395       272.7135052404097        271.9849069736251        270.3070052921419        266.9875737782051        264.5165634542597        262.46422436769683       262.6496719288462        263.06104112788586       259.2767047046231        259.6023208690526        255.88446130704116       256.1866139309903        263.1548614446467        245.01991218405536       259.2102565698037        249.4664496634755        249.91968576511914       248.75872662494962       248.83200726256294
4.5                      273.0451220702159        274.0794816145416        272.791766048006         274.293934400107         272.764312598505         273.22610038341736       273.41226187185595       272.93798726585686       271.99289793245856       279.1056902219907        278.92143894546825       275.4799565435494        279.3140191912903        279.2445974824853        279.25740992604113       278.71139212364443       272.322102567009         260.3690270472652        260.9033328387075        270.93005279011726       272.8542561716992        271.15536964711987       266.90604446478727       263.5987018087931        262.7918645271316        263.3148138190199        263.0882450202082        259.58642352887557       260.2494842634029        255.90264615016983       256.67088465408995       259.3120621075565        242.95805670995          258.53851950032083       248.8993502522474        249.69872968203018       252.87361309121067       249.23341102471136
6                        271.3209549941587        272.31823179546075       270.7571568982835        272.64164468022034       271.51132150027223       272.7472017785931        273.0788655271603        272.46048989022984       269.94347354283246       278.76224041557003       278.5066446432486        274.04888232946183       279.0507819846219        278.94850403764497       278.9728185907841        278.2098725656379        271.1950411301871        259.1083215944178        259.6812896203756        269.5977292375701        270.9071917444049        269.23054597989193       264.9314255653696        261.20862754990577       262.3217454363437        263.0927692545496        260.860700407054         259.0935237878778        259.9879307667795        255.3938437594612        256.4676769069759        256.2208605994485        241.58464002870755       257.83363129494467       247.85724150042853       248.6168567382982        259.10240986459434       249.37283098085192
7.5                      268.5706584920456        268.85124651097414       267.90451709507107       269.32466768899235       269.40903833779316       271.9688620616523        272.3182144831201        271.61349168900216       266.2573157648329        278.3898955038654        278.06336361133594       272.61673649867896       278.75993867640864       278.6287774764049        278.6551134827954        277.6771053015463        269.6725443938393        257.2446058224441        257.4588899706874        267.80685591793724       266.36451572873534       264.5068075779312        261.0690947518087        256.59601204979424       259.58705231856135       260.0383494817415        255.50456403888356       256.39913334864104       256.8965650077056        252.923997246521         253.57985788595298       252.94666431639786       239.95809329574365       256.9455058446617        245.47383201108929       245.69510630061416       250.84094010494502       247.54847556499757
9                        266.3488791913923        266.438891280984         265.3933152253221        266.4311076728023        267.29415617015786       271.03568972521197       271.36664723415345       270.5919700766687        263.4798790854563        277.9935353632684        277.5962055371661        271.20020401195535       278.44691477669016       278.28904234196295       278.31430682713716       277.11716583493495       268.08966659441927       255.40979318351222       255.48591670544533       266.0308496097096        263.3195975634097        261.4041382438016        258.1518173067829        253.39070644475237       257.2751239864245        257.5348545131578        252.0427263430717        254.08124531800502       254.3475368806743        250.78140262337317       251.1611200067408        249.97541831683196       238.62287528936713       255.98261759861794       243.80182333138035       243.8806700058164        247.20139192863007       246.05677564546266
10.5                     264.60698680823737       264.6372026885851        263.2438526009069        264.01228900123016       265.26946944969654       270.00763613877876       270.30464801748144       269.4742316476929        261.3613362573856        277.5780387171224        277.1101508536961        269.80681033218525       278.11572789983234       277.93278183151847       277.9558682716098        276.5349518931727        266.56762137114947       253.80767772273208       253.8323712291697        264.38986607205567       261.0974390152932        259.18337766138006       256.0021029229338        251.19806597300663       255.45470218308353       255.61652096274713       249.72829324885487       252.25259019693843       252.39776690146363       249.08884730802308       249.30990576687773       247.39356579093274       237.5839367479649        254.98834017851155       242.67455987778493       242.70712711200238       245.30485804501927       244.9208980405963
12                       263.22327857897557       263.2318901476123        261.4187746484836        262.007824605381         263.37806981275554       268.93022379997205       269.18765411218794       268.3146363538519        259.69342539249425       277.14753430482745       276.6095992933406        268.4402143701228        277.7695840473814        277.5629968719595        277.5835046490048        275.9351498650563        265.14044769712933       252.4567151829067        252.46208785713253       262.8962585698738        259.388856350588         257.50224766652815       254.38510596854286       249.6514326190626        254.03026406302092       254.14436048589153       248.12434715368403       250.8409847544458        250.9249004667121        247.79284763923184       247.92667974939755       245.19790392584866       236.79232739877742       253.98992008738236       241.90767273864145       241.92248900637355       244.19497788778227       244.07746860642843
13.5                     262.1038148638398        262.1031210186903        259.87012231145843       260.34110754307          261.63585413089714       267.83671557294525       268.05366569161447       267.1502627927484        258.3487443318102        276.7053667118286        276.0981624264042        267.1022374596257        277.4110851471689        277.1821622093566        277.19993450948505       275.32182692410225       263.8111913804622        251.31892666969256       251.3163495421678        261.5333415703909        258.0312998751656        256.18284394565603       253.1365886800343        248.51773414761453       252.89888785343828       252.98939064021664       246.9702764924299        249.74736301246483       249.80037743133227       246.8044729786123        246.8903957098263        243.34891226260072       236.19270801402544       253.00403388936743       241.37136945349613       241.3780737751475        243.47845176761626       243.4521351562927
15                       261.15923156182066       261.1538030703981        258.52102084782223       258.90972483678814       260.02070330463937       266.7467684719767        266.9242202375602        265.9998765803787        257.2177223449475        276.2554062164814        275.5797308132911        265.7886979113056        277.0438303422861        276.79357670975475       276.80855615066264       274.69966450788735       262.55993610482705       250.32853700128385       250.32210823665073       260.2659995230325        256.8998564719492        255.0932685805824        252.12039778121556       247.6287666434226        251.95731184581874       252.03470210160356       246.08056293232534       248.86140958410678       248.89759152172118       246.0178514352979        246.0753597722556        241.75528667385333       235.7199665474425        252.03603456313465       240.9686659752859        240.9711642961744        242.95910296318226       242.9659939387681
