% Model:              PicC_fullinst_night.mph
% Version:            COMSOL 5.6.0.401
% Date:               Aug 9 2022, 09:59
% Table:              Table 3 - Point Evaluation 1
% Time (h)               Temperature (K), Point: 136Temperature (K), Point: 154Temperature (K), Point: 203Temperature (K), Point: 224Temperature (K), Point: 291Temperature (K), Point: 328Temperature (K), Point: 365Temperature (K), Point: 395Temperature (K), Point: 458Temperature (K), Point: 478Temperature (K), Point: 518Temperature (K), Point: 527Temperature (K), Point: 629Temperature (K), Point: 639Temperature (K), Point: 643Temperature (K), Point: 651Temperature (K), Point: 716Temperature (K), Point: 730Temperature (K), Point: 732Temperature (K), Point: 773Temperature (K), Point: 803Temperature (K), Point: 833Temperature (K), Point: 850Temperature (K), Point: 884Temperature (K), Point: 913Temperature (K), Point: 939Temperature (K), Point: 964Temperature (K), Point: 997Temperature (K), Point: 1152Temperature (K), Point: 1241Temperature (K), Point: 1287Temperature (K), Point: 1419Temperature (K), Point: 1436Temperature (K), Point: 1873Temperature (K), Point: 1915Temperature (K), Point: 2309Temperature (K), Point: 2510Temperature (K), Point: 2653Temperature (K), Point: 2663Temperature (K), Point: 2686Temperature (K), Point: 2790
0                        275.7363022208095        276.09066139884567       274.65663838502843       274.31095946975296       268.87967246736963       265.3101498892756        264.88522492820766       263.9300571722106        259.5921889809277        257.87899206878353       265.26850074333004       251.87250355219703       243.23016460672898       264.8639455932584        276.0599572621727        275.6824945384326        236.0966474612394        273.6549422149007        273.9183530546373        265.27888484119495       238.4745570377984        261.7021906513877        260.757349210096         256.1450335273332        252.29973574008804       249.06869559445616       239.78419159466142       233.8356435994022        273.88091822730325       273.8408856350128        273.9300188957092        276.4373707246332        277.7397696514049        277.6004729838839        276.4452215374355        276.4206370580949        277.74868384405744       278.99978536906127       278.9996453084622        278.99952127345364       264.29945507888607
0.1                      273.84789949856076       273.7458014445007        274.7380583573932        274.4356251711672        266.0039846116117        267.3753422399727        263.28434054976464       262.099692639456         258.1504643183813        254.33101636482888       267.09906313344806       250.64663557565814       241.3077817825066        263.132427237091         273.5962935859892        273.7223672171595        237.34414738703265       274.1768778336177        274.428957205789         263.346283855824         238.4692661778867        260.87664212762434       259.3668008305275        255.4126036102814        250.4169074828417        248.21900091556063       239.45563725652667       235.65666920456212       272.7201208223004        272.7404251810415        272.3818212799331        275.65282223699097       276.5935010255821        276.5218853206107        275.6284925736638        275.66616508236825       276.61806352881166       278.58679126830265       278.5681512708811        278.5670462661606        263.87498624935137
0.2                      273.3809992427579        273.2858114605799        274.5399815019328        274.24460023866953       265.0709343863419        267.9005723890051        262.73329923303504       261.10986607135976       257.65813923440226       253.1553699864851        267.5654406025924        250.1332712967777        240.75309913735026       262.3135927963739        273.1181188266807        273.2372512267126        237.670504632193         274.0271195352516        274.2746478896607        262.6510161426218        238.45029744252156       260.5829389170631        258.716800212758         255.1454050138656        249.7454881193412        247.88225770339204       239.35671770066423       236.14595524369486       272.48493737836145       272.4977474968788        272.07046670970726       275.5039570567798        276.35721167946446       276.2885866759696        275.4767338098133        275.5167698237156        276.3803692770503        278.4132491305686        278.3976500811761        278.39604177510284       263.68115527699
0.30000000000000004      273.04703156887365       272.95863896212836       274.2844123306498        273.9961138276075        264.31743208223645       268.1975036500288        262.28159153381335       260.2215239732259        257.21755444407313       252.24421056495686       267.8282120910825        249.70894747720845       240.3748452551129        261.54316300539307       272.7808019333729        272.8925448390583        237.88932716465604       273.7867119083744        274.0279657001936        262.09416209459283       238.41964724745503       260.32827317911074       258.1199450525754        254.89834620388814       249.21671279237057       247.6093394801544        239.28397930785226       236.48767298580972       272.2649103958454        272.2745124541454        271.79879281219206       275.3820627291587        276.15983505435327       276.0947465374709        275.35347060199996       275.3940375584294        276.1812911373566        278.27983763911084       278.265237830278         278.26241185308095       263.49216152460883
0.4                      272.7593649902098        272.6756634293437        274.0019487678201        273.72017705482523       263.6651047853755        268.3448082920013        261.87827772579243       259.41895709011783       256.7997862186018        251.48905619956372       267.9554631876291        249.33346448292517       240.08554669962982       260.80656517540183       272.49152619387104       272.59813461168943       238.04497108603852       273.507754073162         273.74269414245725       261.61451397369655       238.37882067158185       260.08638272257946       257.5591213986153        254.65562121278583       248.7697854101941        247.3693179886225        239.22260488581702       236.74786879072101       272.0483534298888        272.05641744522006       271.5456643886414        275.26901644881565       275.98110085654196       275.91885568270055       275.2398884315199        275.28008482777744       276.0009489946884        278.16728935178116       278.1531692512644        278.1492579127351        263.3035159610278
0.5                      272.48600615828354       272.40595237400714       273.70540693323136       273.4293948133918        263.07804808689195       268.3866123317166        261.50143425896243       258.68652458157214       256.3933243517844        250.83652263968926       267.9857332113013        248.98706287082277       239.8484707601335        260.10168666601817       272.2177756027153        272.32034369992795       238.15648912273784       273.21047613543567       273.4396034739853        261.1828823940557        238.32971936867673       259.84698676918424       257.0260161473008        254.41098240379472       248.37497296282555       247.14731846294927       239.16617490542936       236.9542886024959        271.832522747141         271.83984305613654       271.3031344228336        275.15978516483653       275.8150010816556        275.75533367235755       275.13053608118884       275.17001795460584       275.833340119137         278.06729520447374       278.05344481159943       278.048745645649         263.1143214209832
0.6000000000000001       272.2153033913908        272.13829632462676       273.40153317450194       273.13068765267917       262.53003491507644       268.3631667960307        261.13824885405705       258.00157245924026       255.99220277686607       250.24572823994907       267.9553604745778        248.6567566304857        239.6408971553788        259.42168022300626       271.9473054438045        272.0464620798746        238.23963143873488       272.90442310360595       273.12822015283984       260.77872843944846       238.2751114819806        259.60651155364485       256.51172698378446       254.16297245787874       248.0105360582202        246.93442358832397       239.11142164554005       237.1272385804772        271.6165381757979        271.6234576685775        271.0664495739767        275.05232166744037       275.6567443797814        275.59949614300194       275.0231447821951        275.06177934963125       275.67366034594244       277.9744879597283        277.9607973618846        277.9555524330366        262.92458849607914
0.7000000000000002       271.94338138797093       271.8689081035844        273.0920655318918        272.8258238030671        262.0147698882708        268.2846187970263        260.7851680396138        257.35951684235084       255.59494209077258       249.7066312042374        267.873347693049         248.33906409839147       239.45705179495215       258.7672178898297        271.6760437588309        271.7723259486523        238.297482597367         272.59214672923594       272.81111082623585       260.3965948568355        238.215671222644         259.3635755241623        256.0149434904172        253.91075915401186       247.67081119702937       246.7279563315804        239.0570231805157        237.27078693916553       271.40018774168476       271.4069140721715        270.83442596497184       274.946149689242         275.5053399061394        275.4503590567567        274.9171696432974        274.9548889338226        275.5209238150917        277.8874723945245        277.87384628142905       277.86828786049676       262.73432963254044
0.8                      271.6667077748647        271.5943435720657        272.7786398978589        272.51648047156823       261.5262171124472        268.16153285607373       260.4388793368903        256.75570256341916       255.20054330066748       249.20934394861087       267.74911279828376       248.0306767676938        239.291281679811         258.13963651154427       271.4002741787855        271.49412643250986       238.33293355816843       272.2760108248033        272.4906390597433        260.0310878872958        238.1521695840159        259.1169864485857        255.5347479924067        253.6536933524303        247.35019001612253       246.52525375495836       239.00147901106303       237.38849106554383       271.1834124232628        271.19002951854526       270.6059770030546        274.8408877048157        275.3599122093127        275.30704911215537       274.8121625428083        274.8489617702499        275.3742599473223        277.8048369414423        277.7911874799166        277.7855300558687        262.54361398515607
0.9                      271.38420534708916       271.3135738231374        272.46196146186765       272.20340215647747       261.06168953167537       267.99994280317094       260.0981789648129        256.1875468474474        254.8093644375182        248.74908269476492       267.58813834875053       247.73029105064802       239.14082578943336       257.5402373492246        271.11885480166393       271.21067100836694       238.34735199432416       271.95694590540813       272.1677104410486        259.67964433350295       238.08514881570233       258.86654092854275       255.0712007494661        253.39187636420172       247.0459824722107        246.3250748094288        238.94381401660243       237.4815419862278        270.9664224249232        270.9729730617487        270.3806933077352        274.7364665226891        275.2201453809242        275.1692462135212        274.7080271950786        274.7439280039468        275.23335437081255       277.7258270713652        277.712063627398         277.70649894188676       262.35257448398227
1                        271.09589194665097       271.0266873010603        272.1428600150576        271.8874929940059        260.61746076404904       267.80793783378226       259.76202008673874       255.65033892489004       254.42208242223856       248.31942875830254       267.39797142674973       247.43658562415825       239.00221580605955       256.9681234529574        270.83175679625293       270.9218581982397        238.34351197996244       271.6358759292536        271.8431845783183        259.33931378638965       238.01536430890368       258.61262459460767       254.6234449102724        253.1260974686426        246.75496428434823       246.12633929097734       238.88330264211766       237.5525316182196        270.74952160907907       270.75602373630693       270.15806405824094       274.632796770596         275.0853869273142        275.0363035443599        274.60465571226496       274.6396948726586        275.09754851356206       277.6495151051721        277.63555392999507       277.6302337979595        262.16140937353566
