% Model:              PicC_fullinst_emissivity.mph
% Version:            COMSOL 5.6.0.401
% Date:               Mar 18 2022, 10:42
% Table:              Table 1: Tsense - Tsense Eval
% Time (h)               Temperature (K), Point: 888Temperature (K), Point: 893Temperature (K), Point: 1116Temperature (K), Point: 1135Temperature (K), Point: 1205Temperature (K), Point: 1321Temperature (K), Point: 1332Temperature (K), Point: 1336Temperature (K), Point: 1568Temperature (K), Point: 1602Temperature (K), Point: 1673Temperature (K), Point: 1674Temperature (K), Point: 1781Temperature (K), Point: 1836Temperature (K), Point: 1837Temperature (K), Point: 2776Temperature (K), Point: 2936Temperature (K), Point: 3174Temperature (K), Point: 3175Temperature (K), Point: 3296Temperature (K), Point: 3300Temperature (K), Point: 3303Temperature (K), Point: 3403Temperature (K), Point: 3489Temperature (K), Point: 3555Temperature (K), Point: 3560Temperature (K), Point: 3568Temperature (K), Point: 3585Temperature (K), Point: 3708Temperature (K), Point: 3716Temperature (K), Point: 3832Temperature (K), Point: 3840Temperature (K), Point: 3997Temperature (K), Point: 4049Temperature (K), Point: 4056Temperature (K), Point: 4175Temperature (K), Point: 4183
0                        283.00265285344767       283.00253084205247       283.00359938575804       283.0048666022525        283.01127647274643       283.00466926156696       283.0028791720981        283.0049319081071        283.0048757234357        283.0000074566038        283.00001408372106       283.0000009353076        283.00001112523955       283.00001562953497       283.00000925484085       283.0000099081079        283.0018603132909        282.9986896252998        282.9983700004481        283.0010031972839        283.00144907578886       283.0037719382895        283.003572846916         283.00371003772733       283.00304634342814       282.99814247069855       282.9979487069555        283.0024014911128        282.9978592306563        282.9976675142588        282.99770260765746       282.99900910320173       282.99849035309967       283.00269611114715       283.00264440574534       282.997505466513         282.99751154512796
1.5                      300.440257486515         300.80218707187015       297.03956435388204       297.31612109487446       386.977651806196         305.2976052037726        302.7782987191972        310.7296604332821        303.4459571896867        282.7950753846475        282.74492405580753       281.4898456855709        282.8574306943834        282.8334763954349        282.84524373977024       282.6763083050086        280.1341437203789        276.87274067812865       277.1978521073171        278.9756871652859        279.5788438624786        302.15904387784354       301.05822732633357       291.6031959552358        284.68666195910936       269.89545458430996       274.135856593747         286.35298451220723       268.5612664486622        272.3832248517446        273.41563615719025       270.11110371600194       262.6314630571212        280.3112683489649        280.4019580995758        270.68077041816855       267.9835073987953
3                        302.4845237957137        303.704266323639         306.2775766026515        305.68856767159195       439.18941873608645       327.7076037136346        320.05623543723004       336.34740465199707       306.1142489554502        282.54731213982586       282.4055599747217        280.1249553590964        282.714380008079         282.61970639022917       282.72497499756963       282.2528402350446        279.3884153810453        274.45704817261316       276.0099667944825        275.99480003881047       279.11061524173516       304.42027177590774       304.46724794379054       291.424740674256         285.0042770294032        264.99659212668405       267.2945776759814        285.21925337473346       263.55964644829385       264.85248487408126       279.36005395086016       263.6392367287252        256.9024650378603        277.45354972181184       277.9197072174408        262.0058718389226        261.81468707111014
4.5                      295.63568214912664       298.04325450523635       308.1152096651599        306.89743691027803       443.5866481655053        345.63082072167845       332.9103304183561        355.88421958020405       299.87278227163705       282.38234326845526       282.1453917878942        279.0539311268476        282.6643260150022        282.45469283523624       282.7427682467333        281.8697151069078        281.34698536010785       275.2946410697104        278.22495609538487       275.3088709473796        281.56205207598134       298.32965659877055       300.92321348815176       285.3967154053305        283.01324660658173       269.8858779548606        266.42305286636343       280.6536126801906        268.1927205166812        263.39444779630276       272.39939328444365       262.244331753737         254.1873365418038        271.9924041628648        272.4633475699425        265.7739677184053        260.434294926549
6                        283.72642755625503       286.3528588874306        300.79810010147014       300.87241775672135       421.2631877731683        348.58570238904923       336.6012929561422        358.75175842816355       285.34358790650947       282.28781705042246       281.94546871121105       278.16342664674943       282.67767339013335       282.32986244262906       282.84278223652524       281.5340082375125        283.5171927290557        276.7254710219001        280.5048309527603        275.3450130629296        284.16116188540883       285.23916702630856       288.16610402042386       275.0233199733555        275.31381015389394       276.44661863242146       269.6886679140259        273.49144632449276       274.7502218442049        266.3394366285295        275.11544197516406       265.16116783877993       253.20025380005578       264.3480722790351        264.75487990461505       272.1969528074133        263.3421550972117
7.5                      270.9406935444256        272.6665204326688        287.3559332333452        289.1006773203852        385.3357073654033        337.25914379932686       331.0751721361177        345.6532908605986        268.387707373465         282.10247068317597       281.65906178815897       277.08897473051604       282.6009137842405        282.14550692458107       282.80364187437806       281.13597723519365       282.2142311611133        276.04801716780156       278.69927833392717       274.4632479686305        282.5655520181807        269.8822500443135        271.91914814636516       264.1254484450624        264.67393106137024       271.593144890919         270.1306505035481        265.9885418973994        269.8853305597905        267.1209913126429        269.22064362061576       266.02754801001294       250.8850916991588        256.80041279022043       257.0559775598441        267.5668087660429        264.36875535890084
9                        262.17058562969174       262.56521605899803       276.6290923167798        277.66843562235584       353.2538585995979        326.9177640344728        321.92967831686667       333.5466953268902        258.9894448807953        281.7128053977592        281.2064039546034        275.64224905965733       282.3146532022349        281.8458778011647        282.5152387473092        280.6069566506656        276.69121561398003       272.7910329963382        273.402746967176         272.1409307939843        276.83728347419043       260.37009393645064       261.9752229652285        257.32517198528313       259.3503629052466        264.0302692478584        263.8687653391857        261.7482053475556        262.44826430599807       261.6301861903112        261.631690312061         260.70362561853375       245.22794181784056       252.3541733662856        252.4122751203269        260.48831562528915       259.47815397970186
10.5                     256.5095086400001        256.62588233042544       268.8409145481209        269.41125896146167       330.65389344546185       317.80028511788095       313.67490674408185       323.1081005350366        253.6806375227731        281.2541907137636        280.69329546849787       274.1524700169523        281.9661011225397        281.5014434790701        282.16652691750915       280.02025448002746       272.3263187115237        270.0285450782788        270.19262254813526       269.8415781185637        272.7606639709961        255.26392049754256       256.85384417754676       253.45477118903145       256.9711773687834        260.9522607410637        261.07316442977003       259.80576651443704       259.55029595753854       259.30644246619516       258.7684435328806        258.5324203518032        241.74224718236488       250.3542242754857        250.37126443120417       257.8986839520825        257.5821829202429
12                       252.88602042748738       252.92801632285048       263.17713256111426       263.4803287101628        314.13200975135925       309.850351443939         306.3706537421972        314.1830368469307        250.5682778927518        280.75703883540746       280.14542467334263       272.67058379294593       281.5804655885176        281.12884864287673       281.7853515015931        279.3961916149344        269.05779626276          268.1876367045998        268.2444174539315        267.8939067638537        269.88330657413104       252.3250547566296        253.95916231974533       251.224341661188         255.88189809926777       259.62171696315687       259.78407804954725       258.92928560910394       258.3729887176103        258.2951244440376        257.65809723662875       257.6294079616549        239.67911099553243       249.46865678147816       249.47406260890358       256.93982201559555       256.84124263332774
13.5                     250.4732288229289        250.49021307253642       258.9323668598532        259.08893841800466       301.44389969864164       302.8708415412894        299.89512880751516       306.4694897249639        248.6164782331249        280.2386111695788        279.57871893793396       271.2125745898892        281.1720003586642        280.7386493408081        281.38490502824277       278.74975828130147       266.50866861628657       266.97057185342214       266.9967580691303        266.26013316236447       267.70895499363627       250.50765525840941       252.1774262203405        249.85782273611665       255.33458545831374       258.9649433544285        259.12033779609555       258.5071286509976        257.83538453016774       257.80675881814324       257.1814727474319        257.21640680373014       238.41885601433285       249.0544480536405        249.0555528139394        256.5541277323313        256.52692436931795
15                       248.83545732347574       248.84245815467344       255.70529159096742       255.78780456297926       291.45136748357925       296.7304627813759        294.15691850341346       299.7738842601287        247.35376845394748       279.70736757413215       279.0012800694144        269.78520320079576       280.74773421216815       280.3361883689688        280.9712788099574        278.08916259096117       264.4477501542891        266.14369032343416       266.15881162455935       264.86980828223665       265.9755883550681        249.34685861417103       251.03776992676404       248.99286911800152       255.04040282198235       258.6031595480152        258.745757668206         258.2938293877142        257.56442485305826       257.5497577587639        256.9587809047625        257.0121677363249        237.64177950091064       248.85449104067834       248.8537741073764        256.3887671613942        256.3846427016874
