% Model:              PicC_fullinst.mph
% Version:            COMSOL 5.6.0.401
% Date:               Feb 24 2022, 12:17
% Table:              Table 3: Tsense - Point Evaluation 1
% Time (h)               Temperature (K), Point: 402Temperature (K), Point: 418Temperature (K), Point: 426Temperature (K), Point: 434Temperature (K), Point: 449Temperature (K), Point: 453Temperature (K), Point: 550Temperature (K), Point: 554Temperature (K), Point: 582Temperature (K), Point: 594Temperature (K), Point: 602Temperature (K), Point: 606Temperature (K), Point: 614Temperature (K), Point: 626Temperature (K), Point: 645Temperature (K), Point: 649Temperature (K), Point: 823Temperature (K), Point: 850Temperature (K), Point: 859Temperature (K), Point: 985Temperature (K), Point: 1906Temperature (K), Point: 1950Temperature (K), Point: 1988Temperature (K), Point: 2033Temperature (K), Point: 2061Temperature (K), Point: 2091Temperature (K), Point: 2288Temperature (K), Point: 2526Temperature (K), Point: 2657Temperature (K), Point: 2745Temperature (K), Point: 3057Temperature (K), Point: 3104Temperature (K), Point: 3119Temperature (K), Point: 3135Temperature (K), Point: 3143Temperature (K), Point: 3151Temperature (K), Point: 402Temperature (K), Point: 418Temperature (K), Point: 426Temperature (K), Point: 434Temperature (K), Point: 449Temperature (K), Point: 453Temperature (K), Point: 550Temperature (K), Point: 554Temperature (K), Point: 582Temperature (K), Point: 594Temperature (K), Point: 602Temperature (K), Point: 606Temperature (K), Point: 614Temperature (K), Point: 626Temperature (K), Point: 645Temperature (K), Point: 649Temperature (K), Point: 823Temperature (K), Point: 850Temperature (K), Point: 859Temperature (K), Point: 985Temperature (K), Point: 1906Temperature (K), Point: 1950Temperature (K), Point: 1988Temperature (K), Point: 2033Temperature (K), Point: 2061Temperature (K), Point: 2091Temperature (K), Point: 2288Temperature (K), Point: 2522Temperature (K), Point: 2653Temperature (K), Point: 2741Temperature (K), Point: 3053Temperature (K), Point: 3100Temperature (K), Point: 3115Temperature (K), Point: 3131Temperature (K), Point: 3139Temperature (K), Point: 3147Temperature (K), Point: 635Temperature (K), Point: 651Temperature (K), Point: 659Temperature (K), Point: 667Temperature (K), Point: 682Temperature (K), Point: 686Temperature (K), Point: 795Temperature (K), Point: 819Temperature (K), Point: 863Temperature (K), Point: 891Temperature (K), Point: 913Temperature (K), Point: 917Temperature (K), Point: 931Temperature (K), Point: 955Temperature (K), Point: 996Temperature (K), Point: 1008Temperature (K), Point: 1247Temperature (K), Point: 1278Temperature (K), Point: 1289Temperature (K), Point: 1447Temperature (K), Point: 2525Temperature (K), Point: 2585Temperature (K), Point: 2631Temperature (K), Point: 2678Temperature (K), Point: 2717Temperature (K), Point: 2760Temperature (K), Point: 2957Temperature (K), Point: 3047Temperature (K), Point: 3106Temperature (K), Point: 3472Temperature (K), Point: 3479Temperature (K), Point: 3498Temperature (K), Point: 3514Temperature (K), Point: 3522Temperature (K), Point: 3530
0                        272.9943618791996        272.99721965648024       272.9971218857438        272.9971567251537        272.9964670755583        272.99645981881673       272.99440667202424       272.99434174900216       273.0016843395275        272.99948071141495       273.00035988886157       273.0013869415103        273.00230632675          273.0012754968394        273.0006980281448        273.00055344512924       273.0017537058902        273.00108875404464       273.00258676253105       272.99671096323095       272.99684892307124       272.9967938446508        272.9968835633135        272.99870400755714       272.99834363752444       272.998500680657         272.97460623433193       272.9988256811408        272.97374515297014       272.9968759506784        272.97347573402453       272.9968409495064        272.9969039557366        272.9942105079347        272.9942301015022        272.99411576208547       273.0008174845829        273.0007363814424        273.0007551680374        273.00073610806913       272.9981511949736        272.99812138390587       272.9918855625912        272.9916434386127        272.9996359354344        272.9955309351589        272.99727476032          273.00012212149437       272.99631915602686       272.9957828499333        272.99610835098713       272.99606718688415       272.9994726428177        272.99958764105685       272.9992367017162        272.99654595460964       272.99801803528385       272.9975813970539        272.99800867031547       272.99861962995806       272.9982251830621        272.99840155115504       272.9754530706649        272.99893156153684       272.9747979089254        272.9943285468973        272.9745659765609        272.99640896137663       272.9948361341633        272.9987529570292        272.99474057594915       272.99862645044027       282.99881346925656       282.99898050436116       282.9991462401673        282.99937518669464       282.997672146335         282.99776813429196       282.995563889897         282.9953011687132        282.99273444691545       282.993096744105         282.99295254084655       282.99809993987486       282.99144904399503       282.9940130237606        282.9918704142189        282.99059085128175       282.9984185640607        282.9982215267619        282.99768466410274       282.99469190940124       282.9987362651929        282.9986488188804        282.9987698752433        283.00002545115336       282.99988398846335       282.9999073493497        282.9116887883972        282.9984436888072        282.9112666023327        282.9108700864816        282.9947153110074        282.9928613955516        282.99699423964927       282.99718641680624       282.9973532407176
1.5                      246.97761433630123       258.280018949653         257.94976032486306       257.932518649827         249.00731649763281       248.87789850942238       250.24909207059332       250.13451478930372       268.7800884710763        263.2233898478094        268.8020673717388        278.6046901532303        284.46247441832577       282.6420674922011        269.9292168818161        269.60831481914414       277.79115127621066       278.4258569193154        277.926386978559         258.2430148294571        236.2094018791811        237.95873450997865       237.32284986060807       263.94312055755444       263.3258327343831        263.9077827547796        256.664489534249         243.1554961729628        255.7681730646098        241.28980193111028       255.70564807004612       260.121981993052         256.4043458981303        255.49537219103235       247.06066657088743       246.50128901767113       256.1487888355115        256.8651058929779        256.645391170076         256.4809433614932        251.68992557657256       251.23162882122762       239.8326328351449        239.22785296831623       255.583490946338         251.6193966046921        253.75883387646908       256.877412866947         263.37406728683607       257.66489248794437       247.5828945700748        247.3257078563755        264.4541421008713        266.7582805916287        264.88996044803133       247.2927365474974        245.26739094288402       244.7273781585637        245.24032274823705       263.4548505381946        262.7466237695581        263.39767464821114       259.4764093121981        245.41966626100736       258.5870883357578        229.44375142994176       258.31847781526466       249.38275767200966       247.77505135752347       257.8960039907735        248.4656761625013        249.19427442319915       259.3093389439064        260.8889057153834        261.527962258416         262.74505762955874       263.8562408550317        263.61274251807083       252.90515923021292       252.42745336181324       260.5970618158663        259.90982755145234       262.36330574659036       268.3986426032177        267.21754040719253       266.2198721573707        252.3461276609194        251.74137854552677       269.7196444020956        270.4966875451977        270.07696607034325       252.58866052782042       251.5277822498752        249.62510885340603       251.33734591376006       279.7402789114823        279.4550812051459        279.3435958373106        180.03814874358093       247.7808609215638        182.88386486949878       173.96219049491154       252.42158783001202       253.89488335437972       263.83284802556955       256.1161115795187        256.9437242417701
3                        247.7088439821594        253.92185876628966       247.47496444519422       247.0894408718674        239.05630687544863       239.00915164804672       243.79846170141855       243.7402321966848        261.97244893257744       257.11207841522014       263.2842427847728        274.5832873532343        279.53764827954853       278.26069483338915       263.7867826883375        263.6488868345584        277.95436562937226       280.5514144425991        277.2909113961021        252.23379094733454       217.39147850443928       219.61671054551556       218.8652877512565        255.64205491738812       254.73411913763834       255.62503908965385       248.33035846228967       232.991776627565         247.35273803169022       233.73762214818913       247.6108642805982        254.32670341134096       253.64723143695574       247.70102105764724       246.96994669018633       240.34487454196838       244.60857761535632       256.24475424376686       255.67604913741468       255.0942605884904        241.1991325393486        240.8018057294961        238.42182888907655       237.83102806684388       266.90276411139865       257.21304408885464       262.2621841348475        263.8370697787466        266.51384050392573       262.4558170369697        247.13386319938527       247.65260580015214       259.5251255830971        267.4255399978705        266.1039946998352        240.80310498420295       227.41964795445583       227.05497413653183       227.39696591650016       254.48003393898017       253.4570783242677        254.41640275606485       252.39796008151666       239.285602683344         251.41586792940308       226.26323184907076       251.3145659857065        245.1964041599939        250.730019755931         244.89877356223602       241.51037229779908       240.8860809125624        245.41407548610346       259.81716567998444       260.4010819102131        261.516746369158         257.5107924615869        257.23387211777566       255.12993033270277       254.21767231796034       263.723072832298         262.7487059907828        268.3179705285758        277.23662472840266       274.8364804930092        272.92647181782985       249.43893897822718       248.79249367583168       263.0782934613718        268.86029834827406       267.39150023117145       245.22702782176415       235.15851119468067       232.41912860204224       234.69011149910435       275.48376355189333       274.8406928904787        274.7438604370518        170.35883145712774       237.08974516383924       173.54372630167495       163.75494534850597       245.84194498892006       249.7413474702856        254.34631398309793       245.80406462497518       246.66021004951074
4.5                      240.59434349718217       242.38454680362906       240.08452431886977       239.49161385355018       233.7282964992265        233.714225765814         231.22640039291323       231.1826695742593        246.6107213703557        244.14199941147186       245.54116726878124       249.29363390003115       252.55521972347069       251.95194741547525       240.5014276630422        240.52377349862488       264.309347602797         266.6310463031461        264.03924059583966       235.68855594447524       205.74713871411342       208.0919432863705        207.3346849953643        248.31196030559514       247.2515408848942        248.32006116141102       241.59821574159906       227.65379153744806       240.62157557498912       218.9842547205446        241.00423022715952       238.11429132769294       242.64641022145233       240.36489907623306       239.92822489844121       237.14181892758265       241.21572652169107       252.16908360276565       254.4763282130048        250.56275063373104       235.37575550429338       235.05629142848713       242.55218818598175       242.1289376326768        271.051156068383         260.7884010985263        260.291852946706         266.6889654971094        274.9973274253283        273.49438759153526       257.00774003232186       256.68812690491717       265.8099861909617        270.14595539098923       271.90229140475776       243.22145638320757       215.56349138853827       215.4075257559463        215.54450506048136       246.44112001058343       245.24982318204823       246.38415602677827       246.46370845215336       235.40845286787072       245.43460707603506       230.90338023442584       245.4343841599096        247.60513377375483       252.20268041277703       241.02520301185567       239.18124671496182       237.96727503913982       242.09040655640462       261.6459913102654        262.19557183350673       263.0595181743104        255.22496799612247       254.9528328120594        258.0786933352208        257.8002141997952        265.82242031151367       265.90520812041336       274.97243738273          283.6105910784962        281.7508169771556        283.86339197896257       255.5067763156268        254.75847369630887       262.9497180196519        271.9449267250783        265.6569796406115        246.455784329072         225.50266526485584       222.48461304124274       225.04984118785413       271.2151379768438        270.3711649547307        270.35918809813285       166.76212982403894       233.63387123610863       170.1379486810809        160.4690766422704        246.41443006580994       247.73479620105985       250.00160403401622       243.0532742355743        243.79868141210017
6                        237.78527315576738       237.99326790846513       237.10330673579136       236.33952417126758       230.31880987322015       230.3139605577264        226.06762575767354       226.02927509332207       240.40112941514937       238.5229223427433        235.95937092309237       237.1823520069968        240.48945006744898       240.1200745027847        229.28381059504514       229.35426119322648       253.18122304691744       255.35268819382102       253.24975793891653       225.079869125237         197.4239708525883        199.77643372569875       199.04460483701286       241.73883318970093       240.58614296501077       241.77097777153304       235.72294918865802       224.32991423540005       234.7359559886441        211.33101537741896       235.21882250780152       227.7427541309349        238.52179795723822       237.41472938875975       237.0674114709038        235.56342789178956       241.94145255971935       245.41207972347573       244.23972850100856       241.175353364948         231.58415804229205       231.4383102647922        245.45354654163805       245.3274763924116        270.1303618273363        261.57630520824074       262.8915182562495        276.0047055806708        283.96982287700115       281.9838869345853        263.35617676927995       263.10724026525156       273.77995488233137       278.774232386802         277.1394285627274        249.22840946739439       207.06482321490108       207.06419438593247       207.0548934523761        239.2254889658073        237.93306349357164       239.18375996484346       241.1232133555256        229.62670063882226       240.0937445461174        234.08384863358017       240.22490698792333       252.99119615642428       245.33426774976277       251.04632608093527       240.55631645699395       236.91773122032438       240.39533317455758       260.9693298621518        255.9345561636933        262.2285607556904        253.99134023086108       253.73332554386772       258.29594072047735       258.2231373636378        264.54153866090275       266.28906586350007       277.1402159548758        285.07390487025344       285.3018299367813        290.12220962298824       261.0496382715404        260.4802443606643        264.66978468960434       275.57455738875456       264.80206000499805       251.0208810109888        218.4082907202674        215.38713076213983       218.16820433060093       267.07809738409867       266.14993849356347       266.2572933635079        164.00743597798413       230.9323184146291        167.6371751442067        158.2773731076077        250.35248319843265       256.6164678200014        258.30566445802043       247.6898898278996        248.27857680512716
7.5                      236.8255492398238        236.532225271438         236.04261637346247       235.15702116185673       228.27389121467354       228.27147933815473       224.21638508937093       224.1798462868846        238.22753343622364       236.2937340279445        231.15466140880156       231.4234298673567        235.12474272881607       234.84303125208703       223.88499887485858       223.97590954133972       244.64338744103867       246.76191736023063       244.9865684005897        218.581938982032         191.68885196235604       193.9916354088941        193.29433628898735       236.01005863086888       234.80780932009856       236.06213917457453       230.6368692976366        222.4676762685585        229.62569780944378       207.72080234631102       230.1998608174575        221.40940379327418       237.18503413308025       236.37784300954982       236.0367869515464        234.8594050856352        244.32177173710247       245.31818086730786       238.90630976891998       237.01951830280137       228.88185280863905       228.84357636634869       237.53895493739242       237.4710864368067        256.6394016237823        251.56107777658409       252.1592088778722        260.21712265337334       265.204426723785         264.4618469100358        249.06429495455117       249.0285893681569        269.6808677940154        274.83841246720164       271.7016319234526        242.5342383404634        200.32441672039897       200.30325057334798       200.32198206654073       232.7751390656031        231.42343394620298       232.75049971484643       236.2459420192622        225.00643456384242       235.23682825999745       225.1270557829574        235.49826596311118       245.8602428487876        245.62943068553957       241.99859147889768       243.2252896559138        235.8017106237748        238.77119908914884       250.630972897172         245.00194951296507       251.95761012684662       253.1569522799486        252.90462109799685       247.4939476201026        247.47062269927326       252.17927317657882       255.19858002675028       263.065289860605         268.7641987362206        269.25846361981803       273.00340000330084       249.31004718341478       249.13763785199507       259.04391946247716       269.4694262457228        258.37133551117046       243.15216768372258       212.80792215358807       209.83953143445248       212.8167891477184        263.0937338474389        262.0898564498046        262.3676701075939        161.66763359060135       227.43635353345664       165.20644417537798       156.3912638477935        242.58416204054666       248.55713383354427       249.8258355831699        246.94523769732328       247.5478971718158
9                        236.4240169377128        235.92739120009497       235.57460356266213       234.60004001010967       226.9108990813968        226.90940749698711       223.4156426603581        223.37991718856418       237.30343023472392       235.23152335246314       228.35069713049597       228.10727624755654       232.1584785809795        231.91982498391886       220.70163700430865       220.8049798611509        237.81911519940525       239.93975189490084       238.39506183846063       214.15010086701452       187.4031125755639        189.63856348152453       188.97444343551686       230.91093888541323       229.67983918664706       230.9790114733321        226.07768784117093       221.3136075807373        225.03410003523413       205.7291929251402        225.69438584891208       217.1034119019956        236.64839709364034       235.92876542597378       235.57715486277598       234.48290374758062       238.92065562217365       238.68087622799973       236.0417601944642        234.4894053970034        226.6271949911443        226.61537145411495       227.96417279054805       227.91605439929083       243.99949837996706       241.1340546847535        238.29107219060447       240.41770243500184       244.02574417831593       243.8260100009776        230.7914592158466        230.83773654939955       257.5562690445107        261.900669704084         259.26377045534116       229.26726868852364       194.11923875750787       194.02041513179046       194.11743084517252       226.95230260514472       225.5645554689219        226.94041661553302       231.75672539401458       221.13491431811926       230.7583171532697        212.9105370538519        231.07684083596314       232.56880814251895       239.44753515493755       237.6230692472716        237.51551536006048       233.9658813019842        237.63576260483225       241.7814410577291        240.44271739486538       243.12377228862115       252.48025913259727       252.2229789615261        237.60892091358977       237.5932757697947        241.50516921996507       245.11953881943103       249.1388391560578        252.6528412450446        252.48955948796822       255.25291317406484       235.10072907342996       235.08325723415587       249.44061495326568       258.407865424092         248.92410249502288       231.2607761652858        208.2607988218963        205.29281096270364       208.44525814317356       259.36554246641714       258.24655887019634       258.727618467511         159.7806663143873        223.9387493872981        162.94184543057347       154.7300013915786        230.9983083188082        240.8727603172864        241.5489942402553        241.0515089358981        241.67860763659587
10.5                     236.25086467752578       235.66712914338646       235.35683134337825       234.3169595848209        225.97797330809198       225.97687605656134       223.0656094404272        223.03032355031536       236.90284041351987       234.70858251547895       226.6620941736837        226.11272979632497       230.4270299562516        230.2099655301443        218.71570123310957       218.82721694505534       232.3407984072882        234.50080136423975       233.11633329200748       211.06181076996464       184.14428610799663       186.30774561747563       185.6727384215124        226.3625383193217        225.1151032600823        226.44293993369573       221.95577389235947       220.58738302442964       220.87454668201752       204.59393045444415       221.61618554887048       214.11331881309147       236.42695190416413       235.725654644042         235.3608974316287        234.2687571564456        237.01566191660157       236.2967015003957        234.72346960358254       233.1914138611828        224.8701708400251        224.86517677706357       224.4488575458367        224.40694316100598       239.48626028382625       237.02718128991853       231.76121763015914       232.13899210293812       235.99917016416285       235.9423387144873        222.91801232514464       222.988528550453         247.96205947061821       251.89165101691984       249.55716563050083       220.86006472029314       188.88370973705875       188.77700977268964       188.88222076192034       221.73631274688012       220.32882949584234       221.7350940847108        227.65627826156043       218.5917914580171        226.64937528119228       206.9956470785017        227.0321376409811        224.19543397385644       237.32168547576777       235.9129597495462        235.35443000518097       232.89760258026942       237.03532351634732       238.67964388793564       238.599423514622         239.92034238923134       251.948143961871         251.68465974110316       233.9921203416807        233.97971182581188       237.54159041675968       241.40432152763543       243.38267143664868       245.88363103059473       245.4873060489123        248.05064057264818       228.4024314500287        228.40366920643592       241.43192170255233       249.49760218042863       241.0408865278895        223.4853564405065        204.57243023352845       201.56641321968974       204.86805473131537       255.95137333469404       254.68742766802998       255.3860796055271        158.22305240854135       221.5343056360946        160.98695502149835       153.28512888362468       223.3940020890601        238.21209222252048       238.63213456127994       238.81515970802548       239.3893846600197
12                       236.1727019568216        235.54852253231775       235.2479269652225        234.15910776137332       225.32095373353323       225.32004817153393       222.91024510413698       222.8752543903532        236.72354327060813       234.43975619888514       225.6158581397034        224.87143108880358       229.37198549876916       229.16537297559412       217.41867681112808       217.53575383923345       227.92377025340642       230.147499318277         228.87179784601992       208.87219544453654       181.63020388265147       183.7235154347471        183.1128245946549        222.29535186140822       221.03908299529425       222.38488199526972       218.20608782026125       220.12189374145547       217.08424548126345       203.92439577856658       217.90260547431828       212.00105218984038       236.33154399264322       235.62801428572206       235.25159571979628       234.13780179521018       236.18347976353502       235.22699960063528       234.02381854344685       232.44475818320484       223.49670018473256       223.49426517087258       222.8628996763287        222.82328832630407       237.48940711042923       235.04833191999717       228.144568459589         227.7561502440077        232.03007080159188       232.0258126483769        218.58655186976839       218.67064848364822       240.16995188420032       243.89293051257624       241.73952899749517       214.95482176646507       184.43130422055495       184.33420284895544       184.42996655112827       216.96873835608443       215.54969089576394       216.97640526377788       223.8415609477341        216.87478326811956       222.81638317067203       203.70453421584747       223.26581640967396       218.33928966378696       236.4094499544529        235.10199290163484       234.33655017660078       232.2453637484616        236.71353106689654       237.41405959853606       237.7348515301981        238.51878419417278       251.52964494445493       251.26056806462958       232.48326469747417       232.4723061973409        235.8510461444679        239.7958317403922        240.52034917921313       242.43320133375894       241.94445685869283       244.39797398040463       224.69612615107926       224.70041300886732       234.8067006203361        242.32373036349802       234.5109474088185        218.11750004695446       201.48659765615935       198.4275178875381        201.85440570658992       252.82136700372672       251.40151543571804       252.31519797163486       156.87561075584446       219.93961617416699       159.2984471212459        152.00307794173668       218.13201768109457       237.15888779818454       237.43630879334785       237.81785950462634       238.314177432016