% Model:              PicC_fullinst_night.mph
% Version:            COMSOL 5.6.0.401
% Date:               Aug 7 2022, 12:32
% Table:              Table 3 - Point Evaluation 1
% Time (h)               Temperature (K), Point: 136Temperature (K), Point: 154Temperature (K), Point: 203Temperature (K), Point: 224Temperature (K), Point: 291Temperature (K), Point: 328Temperature (K), Point: 365Temperature (K), Point: 395Temperature (K), Point: 458Temperature (K), Point: 478Temperature (K), Point: 518Temperature (K), Point: 527Temperature (K), Point: 629Temperature (K), Point: 639Temperature (K), Point: 643Temperature (K), Point: 651Temperature (K), Point: 716Temperature (K), Point: 730Temperature (K), Point: 732Temperature (K), Point: 773Temperature (K), Point: 803Temperature (K), Point: 833Temperature (K), Point: 850Temperature (K), Point: 884Temperature (K), Point: 913Temperature (K), Point: 939Temperature (K), Point: 964Temperature (K), Point: 997Temperature (K), Point: 1152Temperature (K), Point: 1241Temperature (K), Point: 1287Temperature (K), Point: 1419Temperature (K), Point: 1436Temperature (K), Point: 1873Temperature (K), Point: 1915Temperature (K), Point: 2309Temperature (K), Point: 2510Temperature (K), Point: 2653Temperature (K), Point: 2663Temperature (K), Point: 2686Temperature (K), Point: 2790
0                        275.7366408180734        276.2000000000004        274.6566371348214        274.29999999999967       269                      265                      265                      264                      259.7000000000004        258                      265                      251.9000000000003        243.29999999999993       265                      276.20000000000016       275.68281636302066       236                      273.6544269870191        273.91829470909164       265.40000000000015       238.47455651529637       261.79999999999984       260.7999999999998        256.20000000000016       252.4                    249.1                    239.79999999999995       233.7000000000002        274                      274                      274                      276.5                    278                      278                      276.5                    276.5                    278                      279                      279                      279                      264.2999999999997
0.25                     273.2150218099052        273.12391354110156       274.41278888635554       274.12122373699424       264.6987915683772        268.04444728746813       262.51415732806646       260.66932947441717       257.44161580722545       252.703229482755         267.6930681336876        249.92474491999764       240.54937479618042       261.9286747971042        272.95110034994076       273.06578817792354       237.77863761998026       273.9078311492674        274.15212057050576       262.3790623672275        238.43255062156953       260.46124724975607       258.4202380063316        255.02531893157226       249.48201754067833       247.7488169640504        239.30205774047695       236.31498953382916       272.3771989538682        272.3875565941005        271.93492957059595       275.4425651490552        276.2595818689493        276.19300387618847       275.4145090242812        275.4551288997878        276.28182458027453       278.3484812616558        278.33415658950025       278.3299244594349        263.58466853098287
0.5                      272.48880246814997       272.40895711740234       273.7088785842369        273.4334385072928        263.08158707384257       268.3965947317753        261.5104805436092        258.68805217786047       256.4004526371257        250.83037949759392       267.9952515630061        248.99007967315274       239.81828901294602       260.1016064197177        272.2203538288524        272.32269891659166       238.1590297882918        273.21397643806955       273.44268652688305       261.18935972494904       238.3232975109074        259.85724211619737       257.0285104747868        254.4184867313658        248.36866825199914       247.1504864917555        239.13462212135715       236.957150818257         271.8367787935486        271.84347996913556       271.30474478633437       275.1597289501693        275.8146552215162        275.7550045224649        275.13045958837193       275.16994605042964       275.83295307270254       278.06867651479166       278.05640394383084       278.0489979723814        263.1113514332739
0.75                     271.80883619000326       271.73556205372245       272.93840255599804       272.6748346438844        261.78328976749646       268.2257521094293        260.6277170746966        257.06870464988873       255.40958783320673       249.45972598348743       267.8139660257057        248.1921182251591        239.3412355332605        258.46007647591256       271.541754667051         271.6366630471564        238.3120078226712        272.43677700090564       272.65310869474183       260.22817661706426       238.1709514499967        259.2549997020487        255.7825566487008        253.79258718721502       247.5063395132893        246.63250518793376       238.98878354781974       237.3253580539088        271.2978250696759        271.3039291235752        270.72413848594675       274.89390125251816       275.43375659895906       275.3798213052224        274.865053157682         274.90229414378217       275.4486841331881        277.8491857547947        277.8375063758473        277.82882246822516       262.63295067421103
1                        271.100100970109         271.0310449560371        272.1464918874055        271.8918450115962        260.63490190235797       267.8107224748883        259.78248754158534       255.66570430381256       254.43812185745358       248.3220050729173        267.40085126061916       247.44599245304641       238.9642017862651        256.9791060211007        270.8357600737113        270.9256961977474        238.3375236266318        271.63904920871727       271.8458261520128        259.3579904581312        237.9963459788688        258.6315758479847        254.63443140838854       253.13958884107237       246.7498190740555        246.13346661703227       238.83556562849722       237.54438363979202       270.75727782676785       270.763229593448         270.1636959466701        274.6333712983154        275.08706411036616       275.0379548657239        274.6052390086721        274.6402537012832        275.09918445945715       277.65327847135853       277.6415587863974        277.63288704278955       262.15185802800454
