% Model:              PicC_fullinst_tstep.mph
% Version:            COMSOL 5.6.0.401
% Date:               May 13 2022, 13:08
% Table:              Table 1: Tsense - Tsense Eval
% Time (h)               Temperature (K), Point: 950Temperature (K), Point: 955Temperature (K), Point: 1264Temperature (K), Point: 1283Temperature (K), Point: 1353Temperature (K), Point: 1469Temperature (K), Point: 1480Temperature (K), Point: 1484Temperature (K), Point: 1716Temperature (K), Point: 1754Temperature (K), Point: 1825Temperature (K), Point: 1826Temperature (K), Point: 1933Temperature (K), Point: 1988Temperature (K), Point: 1989Temperature (K), Point: 2928Temperature (K), Point: 3088Temperature (K), Point: 3338Temperature (K), Point: 3339Temperature (K), Point: 3464Temperature (K), Point: 3467Temperature (K), Point: 3567Temperature (K), Point: 3653Temperature (K), Point: 3719Temperature (K), Point: 3724Temperature (K), Point: 3732Temperature (K), Point: 3749Temperature (K), Point: 3872Temperature (K), Point: 3880Temperature (K), Point: 3996Temperature (K), Point: 4004Temperature (K), Point: 4028Temperature (K), Point: 4163Temperature (K), Point: 4202Temperature (K), Point: 4215Temperature (K), Point: 4222Temperature (K), Point: 4341Temperature (K), Point: 4349
0                        273.9992502391093        273.9990092751832        273.9993914441428        273.9993459322375        273.99991076198285       273.9999040897743        273.99994001339553       273.99989134125104       260.0014495219711        280.00001014973554       280.0000084870098        280.0000058561068        280.0000172627723        280.00001576308165       280.00001968700724       280.00000991859343       280.002580823994         274.0007365625962        274.0007237312663        280.00206382477984       260.00180944258716       260.0013098651585        260.00130920929473       273.9989201165608        260.00264037441343       260.00264574119603       260.00117686199127       260.00183983550664       260.00184222526906       260.0013209040894        260.0013249584267        274.0035723005938        259.99845699735926       260.0000032975134        249.99983273416117       249.99980798215316       250.0011307479232        250.0011449611891
0.25                     272.17904037959977       272.06623421334575       273.2638484373324        273.2652788152297        273.67933283332127       273.89035183870004       273.8805502060187        273.8496692523525        261.2388252537412        279.99476863718775       279.9916949019847        279.7854171353524        279.99705875365356       279.9945362840322        279.9938572790022        279.98263965858166       280.2938285676368        276.2314630204669        276.1694672413379        280.19819070496203       261.0739328146832        260.5011287530462        260.08073941967757       269.86820501271603       262.19621788557953       262.2140651159401        259.44894773479695       260.2121770604586        260.2162063918754        258.72045441897956       258.70300337447395       274.1846858108045        253.521896003024         260.1778899116837        245.33935355531125       245.231783818334         245.21443510598394       245.2351646607252
0.5                      270.65254716058854       270.5109129390606        272.5705497217476        272.5713055333736        273.3188074867766        273.77035134855066       273.7502688160348        273.6837196647603        262.1143927191365        279.9728333162155        279.96356838191497       279.55369876838813       279.98310369049045       279.976355465563         279.9748731554383        279.9468442767144        279.95991989840047       276.85902513836953       276.76608218677336       279.694656380959         261.59743230900534       260.5676198263336        259.5472901151722        266.15018758548035       262.1191550186341        262.1288265551248        258.0863523876336        259.00090411427624       259.00592784028476       256.5351055979982        256.4950104935318        272.8603863502572        247.88680807034063       260.18978043649344       241.26734971603523       241.1339927045464        240.87687622486737       240.91141330421306
0.75                     269.4927655864109        269.39411774060835       271.92852401908834       271.95513990786964       272.94359281623434       273.63641120334495       273.6097393375778        273.502235158254         262.64311054751465       279.93818077586945       279.92087564839557       279.31189207921864       279.9610296977583        279.9490791995404        279.9470329361312        279.8971300793078        279.4036797269621        276.57274585368845       276.4894967031261        278.9834017068926        261.9232966900442        260.54141248061205       258.89137117122357       263.2929879332537        261.3455694065753        261.34986199882184       256.6944712498028        257.58674719571286       257.6061176058018        254.46831142353767       254.42695569418302       271.28267564849364       243.34181493405276       260.1082706373483        238.03430033103032       237.9363198675713        237.4385602141462        237.47988786966147
1                        268.3965964202185        268.3529942013753        271.2954540155324        271.3527428065287        272.56588026577583       273.50000203897497       273.46741186044244       273.3180214973594        263.1106071043159        279.9013377289682        279.8756762561522        279.0683750443275        279.9375578491312        279.92023798820287       279.9176729148217        279.8450159992872        278.8111236263535        276.13401848289897       276.067473267228         278.23889838085057       262.21486494999226       260.4992309743776        258.2158079827692        260.5872175295861        260.45990593738725       260.4595180042536        255.30107134685105       256.1434870546393        256.1796337944236        252.4270911062459        252.38838422033132       269.66523364963496       238.98723686380742       260.0108669102938        234.94818997840488       234.89582835605782       234.15867531218157       234.20558909924216
1.25                     267.57608349322805       267.61516397667435       270.70679222955874       270.8331705036546        272.178399911431         273.3464010349489        273.3158562187448        273.1173517905817        263.2832968298695        279.85668705868534       279.82136482223694       278.82250794747256       279.9091032129507        279.88554194400217       279.8831389381287        279.783346128145         278.25841264360866       275.5416881823946        275.5126053139095        277.56989207555415       262.3385470079247        260.3946078140851        257.5807491773278        258.66203268886795       259.646822717078         259.6619144478839        254.1661936521208        254.9590448959795        255.02728092736223       250.80617764759984       250.80038046791574       268.1052658839353        235.61207893244762       259.861341754032         232.621347362426         232.6369417030583        231.71546926845787       231.76598773384637
1.5                      266.8811555861009        267.01550982605835       270.1383621891219        270.3513319883079        271.7864694860534        273.18496767591813       273.1600963579327        272.9091849458649        263.32167680112474       279.8084793474289        279.76290207312684       278.5755701961705        279.8783784903913        279.84817852211546       279.8462477817415        279.71732277593776       277.723854523766         274.8793785952425        274.89721530817053       276.9352811275964        262.3857425256797        260.26153713383843       256.9641435865133        257.0924714092628        258.8668060147751        258.9065621019601        253.1490949590508        253.89251648944986       253.9998181777415        249.3767499515998        249.41764889221616       266.57148255263786       232.6831307366358        259.68807082389895       230.6404162123526        230.73414298757808       229.65344208480855       229.70666250692364
1.75                     266.18622767897375       266.4158556754423        269.56993214868504       269.86949347296115       271.3945390606758        273.0235343168874        273.00433649712056       272.7010181011481        263.36005677237995       279.76027163617243       279.70443932401673       278.32863244486833       279.8476537678319        279.8108151002288        279.8093566253544        279.65129942373045       277.1892964039233        274.21706900809045       274.2818253024317        276.30067017963853       262.4329380434347        260.1284664535917        256.34753799569876       255.52291012965767       258.0867893124721        258.15120975603634       252.13199626598083       252.82598808292028       252.97235542812075       247.94732225559977       248.03491731651656       265.03769922134035       229.75418254082396       259.5147998937659        228.65948506227915       228.83134427209782       227.59141490115923       227.6473372800009
2                        265.4912997718466        265.8162015248262        269.0015021082482        269.3876549576144        271.00260863529815       272.8621009578566        272.8485766363085        272.4928512564313        263.3984367436351        279.712063924916         279.6459765749066        278.08169469356625       279.8169290452725        279.77345167834216       279.7724654689672        279.58527607152314       276.65473828408074       273.5547594209384        273.6664352966927        275.6660592316807        262.48013356118975       259.995395773345         255.73093240488427       253.95334885005252       257.3067726101691        257.39585741011257       251.11489757291085       251.75945967639066       251.9448926785           246.51789455959968       246.65218574081698       263.5039158900429        226.82523434501212       259.34152896363287       226.6785539122057        226.92854555661756       225.5293877175099        225.58801205307813
2.25                     264.84836359422866       265.27158283390503       268.4281388019659        268.9172112436655        270.5994618352616        272.6903799909419        272.6871953501249        272.2762727599959        263.3270928506374        279.6621297527083        279.5854295805073        277.83604273124934       279.78507263476797       279.73465052011625       279.73449256324494       279.51671710848046       276.17342369461016       272.9529586829506        273.11231375439525       275.09894735555366       262.4478279266228        259.8167286183722        255.11842564549514       252.58144759438656       256.6288849149035        256.7507499871641        250.18829695827873       250.82460434446787       251.05383894965013       245.25812000789688       245.44957698075882       262.04355988452556       224.21568313806085       259.1564378308714        224.92468082284088       225.2549838535419        223.73375439707067       223.79615978015408
2.5                      264.2924445330426        264.8190754662531        267.84651882539174       268.4658386929443        270.17754249988417       272.50144093989144       272.516405640127         272.04561591525606       263.07210716766286       279.6093060506652        279.52139424254415       277.59254275831404       279.75132214952106       279.6934430624343        279.6947091636474        279.4439143638712        275.78122132597514       272.452429928461         272.66073554095453       274.64480680482757       262.28246341724275       259.561747907617         254.5127789866402        251.54036444151183       256.12192770762795       256.2901564357321        249.4131604688573        250.1101265874436        250.3910892175099        244.2822892208992        244.54843478410763       260.706097158709         222.1406978174547        258.9515635526355        223.55082851547388       223.9650897835154        222.38397710085948       222.45196957579796
2.75                     263.7365254718565        264.3665680986012        267.26489884881755       268.0144661422231        269.75562316450674       272.312501888841         272.3456159301291        271.8149590705162        262.8171214846883        279.5564823486222        279.457358904581         277.34904278537874       279.7175716642741        279.6522356047524        279.6549257640499        279.371111619262         275.38901895734          271.9519011739714        272.20915732751376       274.1906662541015        262.1170989078627        259.3067671968618        253.90713232778526       250.49928128863706       255.61497050035243       255.8295628843002        248.63802397943593       249.39564883041933       249.72833948536967       243.30645843390147       243.64729258745643       259.36863443289246       220.06571249684862       258.7466892743995        222.17697620810685       222.67519571348888       221.03419980464835       221.1077793714418
3                        263.1806064106705        263.91406073094936       266.68327887224336       267.56309359150185       269.33370382912926       272.1235628377906        272.1748262201312        271.58430222577636       262.56213580171374       279.5036586465791        279.3933235666178        277.10554281244345       279.6838211790272        279.61102814707044       279.6151423644523        279.2983088746528        274.9968165887049        271.45137241948174       271.757579114073         273.73652570337543       261.9517343984827        259.05178648610655       253.30148566893035       249.4581981357623        255.10801329307688       255.36896933286823       247.86288749001451       248.6811710733951        249.06558975322946       242.3306276469038        242.74615039080527       258.0311717070759        217.99072717624247       258.5418149961635        220.80312390073985       221.38530164346238       219.68442250843717       219.76358916708568
3.25                     262.6221334098478        263.4583691727718        266.09340133127716       267.10565243958666       268.90652473343516       271.931420583764         272.0017850467038        271.3509404719595        262.28578446211327       279.4506987489084        279.32912181761685       276.8625901592224        279.64996791975994       279.5696802259419        279.5752861926706        279.22523627732505       274.6135997836764        270.96525896383827       271.3199893877696        273.2935556161985        261.76723745135735       258.78187277479304       252.68837034426346       248.428492672237         254.61552759788913       254.92352738507753       247.09196229129077       247.9839311987237        248.42029485866237       241.37683302232625       241.86802783541384       256.70989648167847       215.95826372725435       258.33584784176526       219.45544639036584       220.12109537637548       218.36993467396056       218.45511698791034
3.5                      262.024364409621         262.953684307469         265.3764693992149        266.5548372135622        268.39841673272446       271.6899924889775        271.79410190119717       271.0759598388435        261.68069205988263       279.39564328749645       279.2623595977454        276.62805879946364       279.6145333357887        279.5261710745972        279.5343103171712        279.148011611517         274.3686386746965        270.7009454155773        271.0976324627144        273.0224590230827        261.28836069530803       258.2821935777875        251.9603389569431        247.57384916690435       254.34570673088245       254.7112144428106        246.38583379894558       247.55192069946514       248.04356750462406       240.7620961471602        241.34409525234932       255.63768900936984       214.58005984563772       258.1130652308055        218.5105054178026        219.25213254986397       217.59842547820946       217.69621750657123
3.75                     261.4265954093942        262.4489994421662        264.6595374671526        266.0040219875377        267.89030873201375       271.44856439419107       271.5864187556905        270.8009792057275        261.07559965765194       279.34058782608446       279.195597377874         276.39352743970494       279.5790987518174        279.48266192325246       279.4933344416718        279.07078694570896       274.1236775657166        270.4366318673163        270.87527553765915       272.75136242996695       260.8094839392587        257.78251438078195       251.2323075696228        246.71920566157172       254.07588586387575       254.49890150054367       245.67970530660043       247.1199102002066        247.66684015058576       240.14735927199416       240.8201626692848        254.56548153706123       213.20185596402112       257.8902826198458        217.56556444523937       218.38316972335244       216.82691628245843       216.93731802523214
4                        260.82882640916745       261.94431457686335       263.94260553509025       265.4532067615133        267.3822007313031        271.20713629940457       271.3787356101838        270.5259985726115        260.4705072554213        279.2855323646725        279.1288351580025        276.1589960799461        279.54366416784615       279.43915277190774       279.45235856617234       278.9935622799009        273.8787164567367        270.17231831905525       270.65291861260386       272.4802658368512        260.33060718320945       257.28283518377634       250.5042761823025        245.86456215623906       253.80606499686908       254.28658855827675       244.97357681425527       246.68789970094807       247.29011279654745       239.53262239682812       240.29623008622028       253.49327406475257       211.8236520824045        257.667500008886         216.62062347267613       217.5142068968409        216.05540708670733       216.178418543893
4.25                     260.2310574089406        261.43962971156054       263.225673603028         264.9023915354888        266.8740927305924        270.96570820461807       271.1710524646772        270.2510179394955        259.8654148531906        279.2304769032605        279.06207293813105       275.92446472018736       279.5082295838749        279.395643620563         279.411382690673         278.9163376140928        273.6337553477568        269.90800477079426       270.4305616875486        272.2091692437354        259.85173042716013       256.78315598677085       249.77624479498215       245.00991865090637       253.53624412986244       254.07427561600983       244.26744832191008       246.2558892016895        246.9133854425092        238.9178855216621        239.77229750315576       252.421066592444         210.44544820078787       257.44471739792624       215.67568250011288       216.64524407032937       215.28389789095627       215.41951906255392
4.5                      259.63328840871384       260.9349448462577        262.50874167096566       264.35157630946435       266.36598472988175       270.7242801098316        270.9633693191705        269.9760373063795        259.26032245095996       279.1754214418485        278.99531071825965       275.6899333604286        279.47279499990367       279.3521344692183        279.37040681517357       278.83911294828476       273.38879423877694       269.6436912225333        270.2082047624934        271.93807265061963       259.37285367111076       256.28347678976525       249.04821340766185       244.1552751455737        253.26642326285577       253.8619626737429        243.56131982956495       245.82387870243096       246.5366580884709        238.30314864649606       239.2483649200912        251.34885912013533       209.0672443191712        257.22193478696653       214.73074152754964       215.77628124381783       214.51238869520517       214.6606195812148
4.75                     259.035519408487         260.4302599809549        261.79180973890334       263.80076108343985       265.85787672917104       270.4828520150451        270.7556861736639        269.7010566732635        258.6552300487293        279.12036598043653       278.9285484983882        275.45540200066984       279.4373604159324        279.3086253178736        279.3294309396741        278.7618882824767        273.14383312979703       269.3793776742723        269.98584783743814       271.66697605750386       258.89397691506144       255.78379759275973       248.32018202034155       243.30063164024105       252.9966023958491        253.649649731476         242.8551913372198        245.3918682031724        246.15993073443258       237.68841177133          238.72443233702666       250.2766516478267        207.6890404375546        256.9991521760068        213.78580055498642       214.9073184173063        213.74087949945408       213.90172009987572
5                        258.3597757447273        259.8021832704007        260.95620790525976       263.0984280511338        265.26324800122586       270.1998191987774        270.50874154844587       269.38703374835944       257.84421467852985       279.0648647999605        278.86143380697445       275.22735712688785       279.40142051503057       279.26457465611077       279.2885127828639        278.68348045166897       272.94987033694747       269.2308503722654        269.89528155149293       271.4689286621405        258.1746533592749        255.07785205426697       247.50048233618548       242.44622656584326       252.8129023274219        253.66745893411255       242.09316400353734       245.06888162204464       246.0644903815341        237.23805431339          238.55016909933          249.3465179269767        206.66348128417562       256.77622583854026       213.2932274559208        214.35517004674745       214.59782637987982       213.60107218795167
5.25                     257.6440467115879        259.11083128186186       260.05975220403946       262.3183967617625        264.6242514866084        269.89545150165236       270.2416636556058        269.0529899552933        256.9276021109214        279.0091350549662        278.79413836832595       275.002638519947         279.3652214878535        279.2202463080701        279.2476242241693        278.6044658944271        272.78205945570375       269.14169820079184       269.8722974409215        271.30834085971          257.3320288020088        254.26613323659282       246.63377519417966       241.5919437587124        252.6733649624479        253.80327466027208       241.30247177131616       244.8018024528909        246.11329386544955       236.8719905403264        238.55521613117176       248.48923955649087       205.81875817521768       256.55322579819125       213.03262838146432       213.9654839744802        216.28984474088873       213.5354154570299
5.5                      256.92831767844854       258.419479293323         259.1632965028191        261.53836547239115       263.985254971991         269.5910838045273        269.9745857627657        268.7189461622272        256.010989543313         278.95340530997174       278.72684292967745       274.7779199130062        279.3290224606764        279.17591796002944       279.2067356654747        278.52545133718525       272.6142485744601        269.05254602931825       269.84931333035007       271.14775305727943       256.4894042447427        253.45441441891867       245.76706805217384       240.73766095158157       252.5338275974739        253.93909038643164       240.51177953909493       244.5347232837372        246.162097349365         236.5059267672628        238.5602631630136        247.631961186005         204.97403506625972       256.3302257578422        212.77202930700784       213.57579790221303       217.9818631018976        213.4697587261081
5.75                     256.21258864530915       257.7281273047841        258.2668408015988        260.7583341830198        263.34625845737355       269.2867161074022        269.70750786992556       268.3849023691611        255.09437697570456       278.8976755649774        278.65954749102895       274.5532013060653        279.29282343349934       279.1315896119888        279.16584710678006       278.4464367799434        272.44643769321635       268.96339385784466       269.82632921977864       270.9871652548489        255.6467796874765        252.64269560124453       244.90036091016805       239.88337814445072       252.39429023249988       254.07490611259124       239.72108730687373       244.26764411458353       246.21090083328045       236.1398629941992        238.56531019485539       246.77468281551916       204.12931195730178       256.1072257174932        212.51143023255136       213.1861118299458        219.6738814629065        213.4041019951863
6                        255.49685961216977       257.03677531624527       257.3703851003785        259.9783028936485        262.7072619427562        268.98234841027715       269.4404299770855        268.05085857609504       254.17776440809612       278.841945819983         278.59225205238045       274.3284826991245        279.2566244063222        279.08726126394816       279.1249585480855        278.3674222227016        272.2786268119727        268.874241686371         269.80334510920716       270.82657745241835       254.8041551302104        251.83097678357035       244.03365376816222       239.02909533731986       252.25475286752592       254.21072183875077       238.93039507465252       244.0005649454298        246.2597043171959        235.7737992211356        238.57035722669715       245.9174044450333        203.28458884834382       255.88422567714412       212.25083115809488       212.79642575767852       221.3658998239154        213.3384452642645
6.25                     254.78113057903042       256.3454233277064        256.4739293991581        259.1982716042772        262.0682654281387        268.67798071315207       269.17335208424544       267.71681478302895       253.2611518404877        278.7862160749886        278.52495661373194       274.1037640921836        279.2204253791451        279.04293291590744       279.08406998939085       278.2884076654597        272.110815930729         268.7850895148975        269.78036099863573       270.6659896499878        253.9615305729443        251.0192579658962        243.16694662615637       238.17481253018903       252.1152155025519        254.34653756491034       238.13970284243135       243.7334857762761        246.30850780111135       235.407735448072         238.57540425853898       245.06012607454747       202.43986573938588       255.66122563679508       211.99023208363846       212.40673968541128       223.05791818492432       213.27278853334272
6.5                      254.0220461825651        255.56057180889232       255.56171482894274       258.34905771104746       261.3946453798618        268.3576951987155        268.88265081816957       267.36370536152026       252.277970268759         278.7280515470749        278.45479639666434       273.8770127743874        279.18224952819617       278.99636148502066       279.04031831329087       278.2062909901769        271.905207496297         268.4376331599509        269.4563848652723        270.43698204838887       252.9696618322334        250.03272652561645       242.17589048794085       237.10660650668962       251.69531767762624       254.0958510942569        237.06305391048946       243.2045076641482        245.97375235180508       234.80073828035762       238.20369514876145       244.1638130733122        201.47707925922288       255.41288797360082       211.31592071040305       211.63581115067518       223.72014189121813       212.8879119345521
6.75                     253.1402212721462        254.5110199273083        254.60488636251245       257.30398550404027       260.623004925567         267.9923457999527        268.5250709758385        266.9566204948909        251.10632957335326       278.6629940655807        278.37652589407395       273.64450678275233       279.1384772216498        278.9434398100057        278.98846105405454       278.11539211279757       271.5925928981837        267.3589088417427        268.28029003795          270.01427565913593       251.55527771221716       248.5512945817271        240.83279809553346       235.43277655319858       250.48170981761174       252.75096370722872       235.17685179758794       241.93408470186705       244.55312846584928       233.51165044566665       236.7653765376436        243.1569916995799        200.1800513438801        255.09281863497313       209.47037569303285       209.78557218708713       221.46698176746273       211.59931298999678
7                        252.2583963617273        253.46146804572427       253.64805789608215       256.25891329703313       259.8513644712721        267.62699640118996       268.1674911335075        266.5495356282616        249.9346888779476        278.5979365840863        278.29825539148356       273.4120007911173        279.0947049151034        278.8905181349908        278.93660379481827       278.0244932354182        271.2799783000704        266.2801845235345        267.1041952106277        269.59156926988305       250.14089359220088       247.0698626378378        239.48970570312608       233.75894659970763       249.26810195759728       251.40607632020058       233.2906496846864        240.6636617395859        243.13250457989346       232.2225626109757        235.32705792652575       242.15017032584757       198.8830234285374        254.77274929634552       207.62483067566268       207.93533322349907       219.21382164370732       210.3107140454414