% Model:              PicC_fullinst_night.mph
% Version:            COMSOL 5.6.0.401
% Date:               Aug 10 2022, 09:08
% Table:              Table 3 - Point Evaluation 1
% Time (h)               Temperature (K), Point: 136Temperature (K), Point: 154Temperature (K), Point: 203Temperature (K), Point: 224Temperature (K), Point: 291Temperature (K), Point: 328Temperature (K), Point: 365Temperature (K), Point: 395Temperature (K), Point: 458Temperature (K), Point: 478Temperature (K), Point: 518Temperature (K), Point: 527Temperature (K), Point: 629Temperature (K), Point: 639Temperature (K), Point: 643Temperature (K), Point: 651Temperature (K), Point: 716Temperature (K), Point: 730Temperature (K), Point: 732Temperature (K), Point: 773Temperature (K), Point: 803Temperature (K), Point: 833Temperature (K), Point: 850Temperature (K), Point: 884Temperature (K), Point: 913Temperature (K), Point: 939Temperature (K), Point: 964Temperature (K), Point: 997Temperature (K), Point: 1152Temperature (K), Point: 1241Temperature (K), Point: 1287Temperature (K), Point: 1419Temperature (K), Point: 1436Temperature (K), Point: 1873Temperature (K), Point: 1915Temperature (K), Point: 2309Temperature (K), Point: 2510Temperature (K), Point: 2653Temperature (K), Point: 2663Temperature (K), Point: 2686Temperature (K), Point: 2790
0                        274.50473002428464       275.8560538795426        273.43767675544507       274.0251210711501        268.70893579492076       264.81790992180964       264.52027762777095       263.7476632028299        259.18121777398204       257.6404202356672        264.7899827096975        251.745248542763         242.88885858074255       264.66086823079985       275.7753113882948        274.3556994749355        235.48251604154237       272.61992526017474       272.8934633036444        265.04992020428205       221.9860396323652        261.18094793843125       260.623579919625         255.78053169408844       251.96924768685733       248.87541384018243       239.34284087300782       233.26877229838644       273.4542037397911        273.27294660901106       273.7052604472385        276.03390240751173       277.2935936296503        276.94662298005875       276.1057734008494        275.900234189479         277.3106933723698        278.9993110578148        278.99893009067335       278.9984401863372        264.29675263106554
0.1                      268.61615883844183       268.51835852659804       269.1364431535252        268.7147790275415        261.8519046448165        263.4277567912896        258.05180327730716       257.4484435455896        252.41788691630794       247.2691797823521        263.19555448988933       245.04924157799954       231.83829570763763       260.3295230089194        268.3596457263079        268.4795191204487        228.9292823963638        268.56307537350335       268.8999376482877        259.54183714474294       221.9664003285402        256.0843454686966        255.0698370449537        250.33282318857619       244.0065583552142        242.9077065725464        230.05929235907888       227.58857427896646       268.19492395095375       268.2932376792344        267.1311174543197        270.7161640999466        273.8910617078955        273.784048399544         270.7072492920395        270.7425715378806        273.93200663860233       277.5883749298637        277.5482029642344        277.4580248366174        261.80564326291693
0.2                      267.08217398207614       266.9933166607453        267.91843322240453       267.51553300011665       259.68540629391646       262.57766932710103       256.0309932511449        254.56646512458593       250.352953799436         244.00426719499183       262.33187152515166       242.4749742504504        228.84746375325017       258.25175474486366       266.8477819851427        266.95773540932026       227.18231505642774       267.359173841491         267.6769138076648        257.5993597605253        221.81374254358482       254.4377234552377        252.83887874513215       248.6135119398085        241.32502350698198       240.6563039996554        227.59635263340382       226.0496175801244        267.1790137706431        267.2452763807256        265.78989039693704       270.0624920310289        273.01527526794956       272.9142591666936        270.0304728196398        270.0903148956769        273.05566893950015       277.0243005125587        277.02766362353105       276.89889468212306       260.75428148483905
0.30000000000000004      265.9306812548733        265.846367255173         266.8882554252434        266.50075000217083       257.9169179021957        261.68005375565434       254.43467690102966       252.14343260626873       248.60905695764487       241.5114376649723        261.446908927182         240.4380600691942        226.8465168526296        256.2977499386832        265.71434402069696       265.8185232050112        225.84498923993021       266.3207141202902        266.62407766903914       256.0209979619991        221.55393102990126       253.09762023910275       250.9239369737297        247.15693459832906       239.25442867619614       238.8703941818955        225.95874076961053       224.86000910839044       266.2229433339447        266.27550417422617       264.6207553161274        269.54306088356094       272.2691756734389        272.1727001703682        269.49871171585016       269.5688821234546        272.3074359026549        276.6041893935674        276.6403842973407        276.4777140522423        259.7661095956553
0.4                      264.91713560345255       264.8344931905054        265.91831576797443       265.5429070230702        256.3662192342135        260.7619748826568        253.06264790882005       250.05051253894416       247.0513991421908        239.464553770842         260.5513031056255        238.71102141914207       225.31881586929674       254.44767597503213       264.7145503479785        264.8160462249396        224.69352636315293       265.3370428253938        265.62901255268275       254.64032028677818       221.20408373822616       251.9163475932331        249.21289136930068       245.84527010026906       237.53244701283995       237.3448647072941        224.70503113966538       223.8264923113076        265.2887296725591        265.3356417496377        263.53923540124987       269.06538375331206       271.59277670491406       271.5002471875216        269.0144696836517        269.08903586643146       271.62847221638674       276.25423755354853       276.3177566252849        276.12599833675205       258.8056184489837
0.5                      263.9564032246321        263.87456485655866       264.96927788134127       264.60391969212606       254.95109154178306       259.83922611896486       251.82323086386313       248.19841873714205       245.61584261883485       237.70061858823667       259.65252059479155       237.18127789605876       224.04637187607474       252.69757973982502       263.7646946746722        263.8645928117974        223.63915663796988       264.3741371923129        264.65666131068525       253.37834295579538       220.78273569288567       250.8254994116197        247.64552256748513       244.62262193167535       236.02817352092492       235.98118123285988       223.64856109021105       222.8732558812129        264.3638623366631        264.40843137176483       262.51002142449966       268.6045141398128        270.96004763964004       270.8711390739858        268.55004578343124       268.6263093783722        270.9931711289709        275.9434135312861        276.03111435163254       275.8138029581361        257.8619536626828
0.6000000000000001       263.0154471506013        262.9341612932507        264.0279991332138        263.67143031875713       253.61468380433467       258.91803636974464       250.65691421400865       246.49642709708712       244.2537133329477        236.09980290841852       258.75386358297226       235.7662113912828        222.90617066049168       251.0242139803645        262.8327166500182        262.9314143445465        222.6355149954441        263.41995305504616       263.6942428638203        252.18260172305907       220.31510757238925       249.7828905408697        246.16782804211806       243.45073295122677       234.6475993589157        234.71020282903513       222.68899674998397       221.96149320299153       263.4434814912711        263.48695591367215       261.5107029590864        268.1513589833107        270.35337150184364       270.26787678264805       268.0947242776522        268.17152402349524       270.3840246030255        275.6533207719461        275.76360553088796       275.52279170951607       256.9288483138067
0.7000000000000002       262.085346988731         262.00451309150753       263.0916503707159        262.7427856791104        252.34244765463973       258.00100713567497       249.54726841499482       244.92023264995655       242.95327099304473       234.62896993718257       257.85674644078466       234.44361853898045       221.8637787338143        249.42655604603155       261.9098860427442        262.00760721263003       221.67120715947263       262.47199795142365       262.73909644673495       251.03888626599522       219.80822233016292       248.77684987672768       244.76667699900474       242.31981224274006       233.36435402665154       233.5132917106015        221.79739157717066       221.0816128920483        262.5270307262854        262.5700424042802        260.53582056330134       267.7039101766545        269.768770630627         269.68648711798954       267.64597603012123       267.7226269073348        269.79709546779935       275.37863989608235       275.51041646320834       275.24764383741774       256.0054491695259
0.8                      261.16203293196276       261.0816242233002        262.1597752575316        261.81758943585504       251.1292793619774        257.0902816365871        248.48705866076747       243.4603675692048        241.71164027317897       233.27331301771784       256.9624444524503        233.20447058991337       220.90243699289775       247.91014993019434       260.99218041738624       261.0890634429433        220.7425823295574        261.5300653776534        261.79096109828646       249.94129255260074       219.2655016555323        247.8022987587509        243.4386282842172        241.22675804184885       232.16629154339134       232.38273792067548       220.95884345805027       220.23037354134158       261.61528338123236       261.65812333653986       259.5836881030453        267.2615850831998        269.2053342289755        269.1260337326384        267.2029182167921        267.2790106721878        269.2315048550299        275.1164704998165        275.2689697659619        274.9854455030209        255.09258177223995
0.9                      260.24318194397483       260.16321478796783       261.2328477196262        260.89644883865066       249.96811047063815       256.18723377827234       247.4679511044249        242.10120968189486       240.52407257910332       232.01349325602348       256.07206326176964       232.03668579808735       220.004052541717         246.4749872864663        260.07746442435916       260.17358457899          219.8459260820182        260.5946802640579        260.85023867670964       248.8828288039061        218.6931484092884        246.85395926593787       242.17695715187713       240.16787578249486       231.0383050607116        231.30864293845949       220.15875017381418       219.40447461276364       260.7094670392258        260.7521812792798        258.6520075236943        266.8239041702402        268.6612930924415        268.58473107694414       266.7648158921061        266.8401676925353        268.685494364704         274.86342737759          275.0362296687321        274.73273864374454       254.19101769091296
1                        259.3284465020067        259.2489482606182        260.31204169289714       259.98072396854366       248.851060727027         255.29230637898792       246.48204974057748       240.82412067009244       239.38465618272096       230.8292721271198        255.18643743620086       230.92735867344723       219.1521045775207        245.11501692638754       259.16568999796135       259.26108799738176       218.97771317656813       259.6668765039148        259.9177894043919        247.8566560765061        218.0989368026087        245.9273081402865        240.97280971534758       239.13950396376674       229.96523631497215       230.2807296520437        219.38522857611827       218.60079255722275       259.8109150536825        259.85343515233274       257.738198573567         266.3904521473649        268.134196040825         268.0601289428567        266.33109102736046       266.4056585737439        268.1566025875392        274.61622497087507       274.8092106604745        274.48613092678517       253.30128152525822
