% Model:              PicC_fullinst_radfix.mph
% Version:            COMSOL 5.6.0.401
% Date:               Mar 15 2022, 08:50
% Table:              Table 1: Tsense - Tsense Eval
% Time (h)               Temperature (K), Point: 611Temperature (K), Point: 627Temperature (K), Point: 635Temperature (K), Point: 643Temperature (K), Point: 658Temperature (K), Point: 662Temperature (K), Point: 771Temperature (K), Point: 795Temperature (K), Point: 839Temperature (K), Point: 867Temperature (K), Point: 889Temperature (K), Point: 893Temperature (K), Point: 907Temperature (K), Point: 931Temperature (K), Point: 972Temperature (K), Point: 984Temperature (K), Point: 1283Temperature (K), Point: 1314Temperature (K), Point: 1325Temperature (K), Point: 1483Temperature (K), Point: 1501Temperature (K), Point: 2415Temperature (K), Point: 2561Temperature (K), Point: 2621Temperature (K), Point: 2667Temperature (K), Point: 2714Temperature (K), Point: 2753Temperature (K), Point: 2796Temperature (K), Point: 2993Temperature (K), Point: 3083Temperature (K), Point: 3142Temperature (K), Point: 3508Temperature (K), Point: 3515Temperature (K), Point: 3534Temperature (K), Point: 3550Temperature (K), Point: 3558Temperature (K), Point: 3566
0                        283.00465520981095       283.0047887190673        283.00494628985894       283.0052409993507        283.00208920206853       283.0020887974189        282.9995906349193        282.9944902508938        282.99476549402243       282.9945194035454        282.9947685003758        283.00146914267197       283.0009896425263        282.9948509004766        282.995883654188         282.99548902184915       282.9999394034884        282.9997031641329        282.99965916654844       282.99579028092836       282.99871212078676       283.0000712954956        283.0001521801317        283.0001553222675        283.00015289136576       283.0002227883735        283.0001572754612        283.00011963444024       283.001658874597         282.99820701138395       283.00193365845524       283.0014061225093        282.9956354713106        282.9965384321407        283.00207873350445       283.00226984063596       283.0024665031322
1.5                      271.4454587454803        273.13427246347567       274.2099606189364        276.11989211411384       285.617731323544         285.45513642098723       264.33555174360896       262.2574728733614        269.8601087029076        271.8234677571185        270.61562008547827       278.9442535724428        275.6058732316745        270.7142330350257        270.66918876548704       269.66297333856136       281.8872872878317        281.9633569259672        282.20396984741365       277.76575200804604       290.8502941331762        279.82988067938          266.97358997465767       281.4179585287604        281.0272424425822        282.4248910302399        281.9205264312789        281.8990312733471        282.5900187098356        264.6620357632304        281.3371992179592        280.4376526557164        277.66224940343415       268.0435987117131        279.0686430808291        269.9353716766052        271.94037532994497
3                        260.29883330351703       276.2518435100456        277.3328360072505        279.29888353284554       285.09181809402577       284.96183875569284       270.51472500174015       269.81514797700544       277.9029972469724        280.3390945896479        282.4854569499301        295.2829553834063        291.68516424680104       284.8847586816557        278.2921799908498        277.18791690482254       286.5791672083304        293.223693049679         293.5547667149593        283.4666668430075        322.944831580289         276.8399037780895        257.9840034236225        279.48602810177084       278.7604102811769        281.3072070893497        280.47512045479374       280.3822155622865        280.68331892027135       258.37322892055926       279.1935688767155        277.9271385966291        285.148991863649         261.49239683387214       279.75439316630707       261.9494702986599        263.51582003353894
4.5                      257.45590579201325       271.3348162177396        276.4013668930997        274.4272073692014        284.828047965916         284.7236330434204        275.3189865121308        275.08807489401227       281.94980150230407       285.19471497372257       292.06658581687003       303.4797647565001        299.9417747023069        297.6483039707471        291.24645560225434       290.8036213332921        295.17771509245614       308.19773970083105       305.20372952156544       292.7721538709752        345.19375618960714       274.6696334708171        252.199415811423         277.899067921417         276.9540080027664        280.0772920975049        279.1704882874266        278.9965137531319        279.07759407610087       256.7894786575747        277.9767735675587        276.42036074111405       295.8076639025311        268.5713076309773        264.13597961334733       259.85406803356335       261.404288089723
6                        259.26735604990284       264.34960160003646       264.47720871191314       264.4870776064252        284.6152525742339        284.5783995751409        276.0128648841762        275.96064355441877       280.90199532612087       285.9170241206371        293.5565365790957        304.8385966372797        303.2115842789557        304.7777513549824        301.37605252161757       300.98370933578457       306.31876208479355       319.862853011439         315.1767094845919        304.3216856737059        360.41283728588655       273.077156636964         247.89310395163454       276.55654538360164       275.5112344209135        278.69106935381785       277.9494954735242        277.7516004128525        277.1491441495619        255.2099035688255        276.8719065619271        275.39886812000765       306.9441479748054        262.5240102251272        272.8211022186756        262.2612340237119        260.77584533562646
7.5                      261.453083265744         264.0243098666796        258.95070067076426       260.4739852891799        284.39717253270635       284.394813525622         261.5432616037179        261.53004828170265       264.4609842798175        271.9959688712666        275.8748101090187        284.8705775398432        283.2890216321888        284.44901303729387       287.1727345801547        287.0871836150098        307.3512354455691        316.8128657277052        313.20418327670535       297.97848919784826       339.38068858921656       271.48760175027513       244.38749781053926       275.04999054451173       273.9769073956969        277.1067495888509        276.5399058845387        276.41852239661443       275.1438382606889        252.52060234317545       275.17089758092396       274.1411512247497        299.674016527718         262.6443621345157        260.5928765703751        264.4685747814544        259.59977396851883
9                        255.20336566212274       256.72473658970125       256.3583837152039        258.25452577919947       284.15156814357744       284.1551295071544        248.53934516473106       248.5310845586218        250.74809537087077       260.3694396979418        259.0534305079346        265.6197054296335        263.5825035009724        263.77732949055485       268.229093487626         268.2071369856031        297.63652718975044       303.6839065845027        301.8908824892829        282.61395555106014       305.7590725081489        269.8252140166421        241.5416038715906        273.3499326702071        272.3203629737665        275.47706512238267       274.9236577407356        274.99332928348855       273.3734091395531        249.26105605251374       273.01193262044546       272.72539848513475       284.0440045917437        255.59261699839539       255.76432391802717       257.96783301931185       257.82287704496866
10.5                     253.20865854816216       254.37779533134466       255.20459374197654       257.1069161461927        283.9228795863747        283.92788543510454       244.00545217027633       244.00025208705497       245.95158807199869       256.65820689543585       252.40370848228164       258.0905454023367        255.72083595819032       255.77162594621814       259.7751183590509        259.76516541177847       289.00833959464427       292.97075919581204       292.2717848891621        272.65095014803455       286.5916389382415        268.25727720808777       239.25118949718419       271.63641181645085       270.7037546974456        273.89081232504844       273.2492966108783        273.5679692534406        271.85862943686465       246.9184352911531        270.97866377614605       271.40945336943054       273.8757940031908        253.38268561671907       254.07154511850425       255.7914149992281        256.81812384062533
12                       252.3948383504872        253.3919334323182        254.58585408751202       256.4223195134076        283.72785555649733       283.7334784967459        242.02220479173474       242.01849046451562       243.8332855891122        255.07959370123734       248.98221590302052       254.16445018768525       251.6044493125378        251.56678010406065       255.04736032100755       255.04091554817575       281.64210567110996       284.24469439682434       284.2191207196692        265.58160206721976       273.84381123341376       266.80555742156105       237.317851817597         269.9872172560768        269.1705133512288        272.3733009385494        271.6025486654583        272.18049025764026       270.5249077279468        245.2968093857591        269.1691176338542        270.2082898177133        266.6309934805259        252.49350577636457       253.3127293511216        254.82523849889952       256.19328576587475
13.5                     252.04758485082652       252.94937258943293       254.2366808129094        255.9975705312347        283.56778302073127       283.57371382207447       241.13027125187097       241.12729729647086       242.86560335383845       254.35784483229554       247.09459275749796       251.9530344308332        249.28718676413598       249.17704797062407       252.23387877269653       252.2284218507436        275.45823728387006       277.1796623596864        277.54507341688526       260.45005676815174       265.02781118371325       265.47694918338965       235.66458372313537       268.4345143205283        267.73931505303955       270.9390704449462        270.0219864745736        270.8512039783731        269.340964445809         244.20529178485975       267.58125192524193       269.11802294489513       261.35160313135265       252.1196882958736        252.94955506831806       254.3578875542776        255.79536274289495
15                       251.88868003419668       252.73236505433974       254.0276123795817        255.72123991587029       283.43797901287707       283.444085078909         240.71557618138385       240.71301753385          242.4057213155133        253.9995685399505        245.99243387653306       250.63494756790155       247.9109029629046        247.7415818698682        250.4746638873778        250.46940586747067       270.3007983152278        271.4607439738992        272.0283302514083        256.6525241943641        258.7721378909749        264.2667154703882        234.23349074172634       266.99092939345985       266.41532190766156       269.5942397313749        268.5276629390601        269.5911752088703        268.27990815181204       243.4774854301075        266.18599235752276       268.1262305940194        257.431751353034         251.95133461490443       252.7606412497311        254.1082265795064        255.5322701725984
