% Model:              PicC_fullinst_rot2.mph
% Version:            COMSOL 5.6.0.401
% Date:               Jul 12 2022, 08:30
% Table:              Table 3 - Point Evaluation 1
% Time (h)               Temperature (K), Point: 476Temperature (K), Point: 499Temperature (K), Point: 539Temperature (K), Point: 568Temperature (K), Point: 587Temperature (K), Point: 598Temperature (K), Point: 626Temperature (K), Point: 638Temperature (K), Point: 664Temperature (K), Point: 670Temperature (K), Point: 776Temperature (K), Point: 785Temperature (K), Point: 788Temperature (K), Point: 847Temperature (K), Point: 863Temperature (K), Point: 901Temperature (K), Point: 931Temperature (K), Point: 961Temperature (K), Point: 978Temperature (K), Point: 1012Temperature (K), Point: 1041Temperature (K), Point: 1067Temperature (K), Point: 1092Temperature (K), Point: 1125Temperature (K), Point: 1238Temperature (K), Point: 1342Temperature (K), Point: 1399Temperature (K), Point: 1531Temperature (K), Point: 1548Temperature (K), Point: 1985Temperature (K), Point: 2027Temperature (K), Point: 2421Temperature (K), Point: 2622Temperature (K), Point: 2762Temperature (K), Point: 2775Temperature (K), Point: 2795Temperature (K), Point: 2902
0                        277.90438283245527       275.0121635907728        272.3184939770288        270.3174642666407        268.3396122281377        268.6745056869412        264.2337065426447        265.470714568386         270.0226077712222        259.33077638550225       258.43372343534094       269.7945218842111        275.66292101040943       249.34840718760563       273.7947235489563        270.06523366564204       243.89600981083703       265.87348529661097       266.32870140796035       262.1713728589231        261.7595537878613        257.39711095266097       256.428757579799         248.21752550473838       277.5424255792621        277.1776000122174        276.39925625978174       275.2462801754852        277.1006852325907        277.72329158912174       275.411954553213         275.30761806925085       277.275850847628         282.9986650287463        282.9991266469717        282.99916921507383       279.99226403291516
0.25                     269.95493361571255       268.2611040915093        269.61550247969853       270.77830581476024       265.73994140069317       265.76892604326156       261.81387910393636       259.55247280987754       269.61934667675          256.1516548486144        248.67217057003361       267.7839824702993        267.68111358905696       244.40678662073032       265.5163801450852        266.37214895308995       243.66688235714594       263.55308446051896       263.703140003184         259.69523915411446       256.2986287306817        254.0660665659308        247.10960690096616       242.95929992212567       278.09669962436385       277.9581884328638        275.68330651402766       271.0028525105402        273.1197918228376        273.48477600824043       271.16542127386367       271.0253646977567        273.1737597707006        281.2481339562541        281.3698115929303        281.3329620468864        277.2202796418483
0.5                      267.9618735541988        266.20527271491517       268.5299026365626        269.9446085044058        264.64702311901414       264.27597172682346       260.7018409121766        257.63813462659783       268.6768105181382        254.75488775757356       246.47317842326777       266.571424354781         265.64548029114434       242.8671582758254        263.4021515671028        265.055263335859         243.05664860733648       262.47228797509365       262.3632683676683        258.5779339397633        254.48523606366825       252.65966372277106       245.05070941227592       241.34083037657823       278.1339724054258        278.0036358240598        275.6003478199737        270.1775240650707        271.98518258807843       272.27398594287405       270.293972918254         270.1945361962592        272.02987381227877       280.6551106535786        280.8199214330976        280.7940495015898        275.67640790912964
0.75                     266.5606881947135        264.65909243535526       267.58267094861685       269.0373842705064        263.68711452431836       263.0395762452445        259.689837676236         256.14550655613345       267.7188609293878        253.5630060263578        244.9155255162203        265.4775460689721        264.2123291429327        241.58033943572116       261.81928756878983       263.96679488900736       242.34182625641947       261.501300279268         261.20511226563514       257.56570678718805       253.0520622529857        251.4611745423841        243.58632680721774       240.01540867758666       278.1153503149579        277.98670168263703       275.5091004916273        269.39774847303505       270.9759334601587        271.2040564919579        269.48112644241274       269.41100860155353       271.01267995520993       280.1694754163382        280.36799929714607       280.3531635514919        274.23098010797526
1                        265.6073704419346        263.5886935620482        266.78789537814026       268.200712763297         262.86986806564175       262.08417975814695       258.8073507513075        255.0431749501227        266.86669483734613       252.58010901675075       243.8387144375385        264.5679036718537        263.2411119503869        240.5475738394482        260.7232933792114        263.10244832378106       241.5760845177267        260.6615277173881        260.2676784547772        256.6806101618915        251.9714273802872        250.4736719162816        242.5499880337571        238.97250734465612       278.026444370551         277.8977089971083        275.39037767544994       268.6509213269218        270.0924047806547        270.27864833147675       268.7131029059837        268.66177526483216       270.1234027772641        279.7653373169434        279.98370552840714       279.97837498286316       272.9152919770449
1.25                     264.6540526891558        262.51829468874104       265.9931198076637        267.36404125608766       262.05262160696515       261.12878327104943       257.92486382637907       253.94084334411187       266.0145287453045        251.5972120071437        242.76190335885664       263.6582612747352        262.26989475784103       239.5148082431752        259.6272991896329        262.2381017585548        240.81034277903396       259.82175515550824       259.33024464391923       255.7955135365949        250.8907925075887        249.48616929017905       241.51364926029646       237.9296060117256        277.93753842614416       277.80871631157953       275.2716548592726        267.90409418080856       269.20887610115074       269.35324017099566       267.9450793695546        267.9125419281108        269.23412559931825       279.3611992175486        279.59941175966827       279.6035864142345        271.5996038461145
1.5                      263.88039183396717       261.66368416041803       265.3089629416261        266.6518425956986        261.345227702813         260.3311054482831        257.1616027944911        253.03207939312992       265.2925034347061        250.7593935906156        241.8780494308767        262.8891204066333        261.48320904261783       238.64912939109536       258.7520780932871        261.50500447921644       240.1081881059995        259.094460021854         258.53969900978166       255.027101012685         249.99207991493563       248.64308282080378       240.65252729309609       237.05740450055592       277.80929536181304       277.68043131788727       275.12573928713766       267.1819012299775        268.3918053550799        268.5053715207649        267.20752965753417       267.18856068954045       268.4127791319423        278.9784544472126        279.2302685267248        279.24146381415284       270.40441892622
1.75                     263.2808357285779        261.01819321679756       264.732006200481         266.06027005177464       260.74429145086816       259.6862721250064        256.5138830780539        252.3109010489352        264.696597012365         250.0621702332699        241.1811894724884        262.25613898402963       260.8753520120723        237.94537360560918       258.0908072803717        260.8991003351673        239.46765539296436       258.47616629455774       257.8915020947826        254.37176656454034       249.26966744476627       247.93994944630654       239.96120720171427       236.35062747437442       277.64293085870554       277.514068312309         274.9534713286717        266.4835811750031        267.63913871498954       267.7326460863683        266.4995120015897        266.48905115391875       267.65726403272464       278.61644186279955       278.87580761480194       278.89161575133875       269.3260131653157
2                        262.68127962318863       260.372702273177         264.1550494593359        265.46869750785055       260.14335519892336       259.04143880172967       255.86616336161669       251.58972270474052       264.1006905900239        249.3649468759242        240.4843295141001        261.62315756142607       260.2674949815268        237.24161782012297       257.4295364674563        260.2931961911181        238.82712267992923       257.85787256726155       257.24330517978353       253.7164321163957        248.54725497459694       247.2368160718093        239.2698871103325        235.64385044819286       277.47656635559804       277.3477053067307        274.7812033702058        265.78526112002874       266.88647207489925       266.9599206519717        265.79149434564533       265.78954161829705       266.90174893350695       278.25442927838645       278.5213467028791        278.5417676885246        268.2476074044115
2.25                     262.0817235177994        259.7272113295566        263.57809271819076       264.8771249639266        259.5424189469785        258.39660547845295       255.2184436451795        250.86854436054583       263.50478416768277       248.6677235185785        239.7874695557118        260.99017613882245       259.6596379509812        236.53786203463676       256.7682656545409        259.6872920470689        238.18658996689408       257.2395788399653        256.59510826478447       253.06109766825108       247.82484250442758       246.53368269731206       238.57856701895068       234.93707342201137       277.3102018524905        277.1813423011524        274.6089354117399        265.0869410650544        266.13380543480895       266.187195217575         265.0834766897009        265.09003208267535       266.1462338342893        277.8924166939733        278.16688579095626       278.1919196257105        267.1692016435072
2.5                      261.4821674124101        259.0817203859361        263.0011359770457        264.28555242000255       258.94148269503364       257.7517721551763        254.5707239287423        250.14736601635116       262.90887774534167       247.97050016123276       239.09060959732352       260.35719471621877       259.0517809204357        235.83410624915055       256.1069948416255        259.08138790301973       237.54605725385895       256.62128511266917       255.94691134978538       252.40576322010645       247.10243003425825       245.83054932281485       237.8872469275689        234.2302963958298        277.143837349383         277.01497929557416       274.43666745327397       264.38862101008004       265.38113879471865       265.41446978317833       264.3754590337564        264.39052254705365       265.39071873507163       277.53040410956027       277.8124248790334        277.8420715628964        266.09079588260295
2.75                     260.93505118044243       258.4965927362838        262.4676420412492        263.7426189868225        258.3860955150027        257.16138635432856       253.97438841894657       249.4906781287121        262.3621465064833        247.33151358460302       238.45463018609354       259.77607751243124       258.4972647852174        235.19260944764196       255.50779750068273       258.52292201709656       236.94927245862775       256.05023448835533       255.35250401466428       251.80160699936923       246.4429838349517        245.18550331697477       237.2543296855692        233.58562758010004       276.9679225692415        276.83909537897097       274.2568521975601        263.70255166476477       264.65025091022494       264.66679793772676       263.6813421477851        263.7034483456526        264.6574301753218        277.1726169217474        277.46056611271314       277.49393369124846       265.06935647063824
3                        260.5058388570641        258.04718372647164       262.03186829992467       263.3090439653403        257.933119215488         256.69341838724966       253.49358329485725       248.9789882435182        261.92597896581697       246.82346447257896       237.95553238800755       259.31156993630583       258.0626783835468        234.6910934866046        255.04816390175048       258.0711145894185        236.45084889436788       255.58540354254313       254.879035219154         251.31251804810248       245.92510871428448       244.67105884308882       236.75272329093838       233.08060061111686       276.7705352927545        276.6418049914913        274.060067872572         263.0440263705225        263.9683295895595        263.97545567257504       263.0184792486237        263.0443332984898        263.9741149604082        276.82432996232944       277.11455791614515       277.1496409513629        264.1759981305715
3.25                     260.07662653368567       257.59777471665944       261.59609455860027       262.8754689438582        257.4801429159733        256.2254504201707        253.01277817076783       248.46729835832434       261.48981142515066       246.315415360555         237.45643458992157       258.8470623601804        257.62809198187625       234.18957752556716       254.58853030281824       257.61930716174055       235.95242533010796       255.12057259673094       254.40556642364376       250.82342909683572       245.40723359361726       244.15661436920294       236.25111689630754       232.57557364213375       276.5731480162675        276.4445146040116        273.863283547584         262.38550107628026       263.2864082688941        263.28411340742326       262.3556163494622        262.385218251327         263.2907997454946        276.4760430029115        276.76854971957715       276.8053482114775        263.28263979050473
3.5                      259.6474142103073        257.1483657068473        261.16032081727576       262.44189392237604       257.0271666164586        255.7574824530918        252.53197304667844       247.95560847313044       261.0536438844843        245.80736624853097       236.95733679183553       258.382554784055         257.1935055802056        233.6880615645298        254.12889670388606       257.1674997340625        235.45400176584803       254.6557416509187        253.9320976281335        250.33434014556897       244.88935847295005       243.64216989531698       235.7495105016767        232.07054667315057       276.37576073978045       276.2472242165319        273.666499222596         261.726975782038         262.6044869482286        262.59277114227154       261.6927534503007        261.72610320416413       262.6074845305811        276.1277560434936        276.42254152300916       276.46105547159203       262.3892814504379
3.75                     259.2182018869289        256.6989566970351        260.7245470759513        262.00831890089387       256.5741903169439        255.28951448601288       252.05116792258906       247.44391858793654       260.61747634381794       245.29931713650691       236.45823899374955       257.9180472079296        256.75891917853505       233.18654560349242       253.66926310495379       256.71569230638454       234.95557820158817       254.19091070510655       253.45862883262322       249.84525119430225       244.37148335228287       243.12772542143105       235.24790410704585       231.5655197041674        276.1783734632934        276.04993382905224       273.46971489760796       261.06845048779576       261.9225656275632        261.90142887711977       261.0298905511393        261.06698815700133       261.9241693156675        275.7794690840757        276.07653332644117       276.1167627317066        261.4959231103712
4                        258.7995891758281        256.261185433721         260.2990316641523        261.58529315586304       256.13226076180644       254.83374726100885       251.58292292600592       246.94656460568757       260.19190929654974       244.80525273396987       235.9729195348302        257.46523466665406       256.33506718300373       232.69936763777875       253.2216081207368        256.2747532324983        234.46980634972022       253.73750295426467       252.99740360999832       249.3688181358413        243.86793879419858       242.62732747907003       234.75995879734174       231.07480088865663       275.9803130453562        275.8519728569393        273.27248108451363       260.4136978115444        261.24565668987367       261.21565063520717       260.3710717290646        260.41167813549254       261.2459429908566        275.43217725669075       275.7311933630392        275.7729772896137        260.61853488450856
4.25                     258.4686603722427        255.91968590760897       259.9583769428978        261.2495349218029        255.78171395605324       254.47890908054987       251.21857994298733       246.5678025072792        259.8540334457528        244.42687501328388       235.60157958625288       257.10916777298536       256.0000141595958        232.33079886483645       252.8730446615071        255.92372119518805       234.0886941354168        253.3785920911472        252.6374617442013        248.9970792968722        243.4829419425084        242.24312763328967       234.38502302760185       230.7024444031013        275.7766841527313        275.6484645610732        273.07152893979475       259.7901536246556        260.6102120353847        260.57590004849067       259.74570700625094       259.78784469150446       260.6098138444553        275.0931175290147        275.39138127118565       275.43338840222117       259.87325734158657
4.5                      258.13773156865733       255.57818638149695       259.61772222164336       260.91377668774277       255.43116715030007       254.12407090009094       250.85423695996872       246.18904040887082       259.51615759495587       244.0484972925979        235.23023963767557       256.75310087931666       255.66496113618786       231.96223009189413       252.52448120227734       255.57268915787776       233.70758192111342       253.0196812280297        252.2775198784042        248.62534045790304       243.09794509081817       241.8589277875093        234.01008725786198       230.33008791754597       275.5730552601065        275.44495626520705       272.8705767950759        259.16660943776674       259.9747673808957        259.93614946177405       259.1203422834372        259.1640112475163        259.973684698054         274.75405780133866       275.0515691793321        275.09379951482873       259.12797979866457
4.75                     257.806802765072         255.23668685538493       259.27706750038885       260.57801845368266       255.08062034454684       253.76923271963196       250.48989397695016       245.81027831046245       259.17828174415894       243.6701195719119        234.85889968909822       256.39703398564797       255.32990811277995       231.5936613189518        252.17591774304765       255.2216571205675        233.32646970681006       252.66077036491222       251.91757801260712       248.2536016189339        242.712948239128         241.47472794172893       233.63515148812215       229.95773143199062       275.36942636748165       275.2414479693409        272.66962465035704       258.5430652508779        259.3393227264067        259.2963988750575        258.49497756062357       258.5401778035282        259.33755555165277       274.4149980736626        274.7117570874785        274.75421062743624       258.3827022557426
5                        257.4758739614866        254.89518732927291       258.93641277913434       260.2422602196225        254.73007353879365       253.41439453917297       250.12555099393154       245.4315162120541        258.840405893362         243.29174185122588       234.4875597405209        256.04096709197927       254.99485508937204       231.22509254600945       251.82735428381793       254.87062508325727       232.94535749250664       252.30185950179472       251.55763614681007       247.88186277996482       242.3279513874378        241.09052809594857       233.26021571838226       229.58537494643528       275.16579747485684       275.0379396734748        272.4686725056382        257.919521063989         258.7038780719177        258.6566482883409        257.8696128378099        257.9163443595401        258.70142640525154       274.07593834598663       274.3719449956249        274.41462174004374       257.6374247128206
5.25                     257.1449451579013        254.55368780316093       258.59575805787983       259.90650198556233       254.37952673304048       253.05955635871402       249.76120801091292       245.05275411364573       258.50253004256507       242.9133641305399        234.1162197919436        255.68490019831057       254.65980206596413       230.85652377306715       251.47879082458823       254.51959304594698       232.56424527820326       251.94294863867725       251.19769428101299       247.51012394099564       241.94295453574756       240.7063282501682        232.88527994864242       229.21301846087997       274.96216858223204       274.83443137760867       272.2677203609193        257.29597687710014       258.0684334174287        258.0168977016243        257.2442481149962        257.292510915552         258.06529725885025       273.7368786183106        274.0321329037713        274.0750328526513        256.8921471698986
5.5                      256.8720530807718        254.27452621531054       258.3157845083094        259.62911788113695       254.09462226512287       252.77522603822592       249.4712910933167        244.7564663285183        258.2233334861616        242.6173948955439        233.82670304006135       255.39640882269526       254.3835001672106        230.57124420651024       251.19424938916458       254.23217849185963       232.26453312949818       251.65165755124406       250.90874011308432       247.21384192413734       241.64138269840382       240.4054217671536        232.5924957803292        228.92427979535609       274.76467427390105       274.63705669302755       272.0735944561197        256.70117068049444       257.4657530687807        257.4121417999275        256.64869530425085       256.6975517401133        257.4622469800944        273.4064230655164        273.6989785127289        273.74140903664016       256.2562530839795
5.75                     256.60505212764576       254.00169235383          258.04197051198884       259.3576591494413        253.8163809426939        252.4980527469444        249.1889289295333        244.46855024931398       257.9500932787945        242.32979068452102       233.54549190132298       255.1147768235602        254.11316190875536       230.2944190630905        250.91620662629228       253.9512215466922        231.97308364324158       251.36723033274288       250.6269916811851        246.9252192899337        241.3482790696326        240.11297012917714       232.3080505604824        228.64402890949813       274.5678026677621        274.4403046118714        271.8801614612806        256.10928158612217       256.8663985208865        256.8109380976998        256.05616860613276       256.10552350008254       256.86255443226327       273.076840895221         273.3664999237768        273.4083907161031        255.6314621658039
6                        256.33805117451965       253.72885849234942       257.76815651566824       259.0862004177457        253.53813962026496       252.2208794556629        248.90656676574997       244.18063417010964       257.6768530714274        242.04218647349813       233.26428076258466       254.83314482442512       253.8428236503001        230.01759391967076       250.63816386341998       253.67026460152476       231.68163415698493       251.08280311424167       250.3452432492859        246.6365966557301        241.05517544086135       239.82051849120072       232.02360534063567       228.36377802364026       274.3709310616232        274.2435525307153        271.68672846644154       255.51739249174992       256.26704397299227       256.20973439547214       255.46364190801467       255.51349526005177       256.26286188443214       272.7472587249256        273.03402133482473       273.07537239556603       255.00667124762825
6.25                     256.0710502213936        253.45602463086888       257.4943425193477        258.81474168605007       253.25989829783597       251.94370616438135       248.62420460196662       243.8927180909053        257.4036128640603        241.75458226247528       232.9830696238463        254.55151282529008       253.57248539184485       229.74076877625106       250.36012110054767       253.38930765635735       231.39018467072833       250.7983758957405        250.0634948173867        246.34797402152648       240.76207181209014       239.52806685322426       231.73916012078894       228.08352713778237       274.1740594554843        274.04680044955916       271.49329547160244       254.9255033973776        255.66768942509802       255.60853069324446       254.87111520989657       254.921467020021         255.663169336601         272.4176765546302        272.7015427458727        272.7423540750289        254.38188032945263
6.5                      255.8040492682675        253.1831907693883        257.2205285230271        258.5432829543544        252.98165697540702       251.66653287309984       248.34184243818325       243.604802011701         257.1303726566932        241.4669780514524        232.70185848510795       254.269880826155         253.30214713338958       229.46394363283133       250.08207833767534       253.1083507111899        231.09873518447174       250.51394867723926       249.78174638548748       246.05935138732283       240.46896818331894       239.23561521524778       231.45471490094215       227.80327625192444       273.9771878493454        273.85004836840307       271.29986247676334       254.33361430300536       255.0683348772038        255.0073269910168        254.27858851177848       254.32943877999026       255.06347678876986       272.0880943843348        272.3690641569207        272.40933575449185       253.75708941127692
6.75                     255.5505173727254        252.9247120189491        256.96122544540015       258.2853940411382        252.7190385183764        251.4059837940309        248.07708840660126       243.33621787467476       256.8707840620286        241.19879299647582       232.4401813184151        254.0042392721783        253.04544933527058       229.2066891637706        249.81874870268732       252.84253875828463       230.82724161494144       250.2455827719348        249.51675852751112       245.7886263181404        240.19551244487414       238.96285597106652       231.1899538232501        227.54274798030156       273.78358098788806       273.6565588255576        271.1097774593355        253.74975371394157       254.47763577401653       254.41516816971347       253.69427299972958       253.74546361631027       254.47249582279616       271.76120423189155       272.03880325620935       272.07840373877787       253.16060226289483
7                        255.3080453091655        252.67802066456295       256.71383770198685       258.03864769758394       252.46924844709648       251.15908533548685       247.82679292064884       243.08350775340998       256.6224052006235        240.94655357108522       232.19454406003953       253.75172793430386       252.79995211288136       228.96550474035612       249.56750044171648       252.58916279570352       230.57213442468588       249.99040527452453       249.2655332605961        245.5325974562308        239.9381901563355        238.7062667198743        230.94135596288677       227.2984145165432        273.5926549025294        273.465748247096         270.9224415628032        253.17248556233875       253.8940439063276        253.830436361228         253.1166999295875        253.1681010660834        253.88866818815552       271.43652457301494       271.71036336332867       271.74918484817766       252.58735615691128
7.25                     255.07201491398962       252.43819473965237       256.4733899041184        257.7983912119972        252.22693011743456       250.92013751948423       247.58491864366357       242.8400432649562        256.3805553158293        240.7036014891312        231.95824905663295       253.50686413556738       252.56097853340813       228.73368012504167       249.32328883421107       252.34303002866338       230.32657128731222       249.74290920937352       249.02232385213776       245.2851282265026        239.69026460495843       238.45909548993012       230.7021721773684        227.06351352716382       273.4032902035161        273.27649799976797       270.7367068592353        252.59905709799648       253.31459156392995       253.25003032855315       252.54305391502214       252.59458995438516       253.3090069267801        271.1131323899828        271.3829840949302        271.42096374704687       252.0276465213076