% Model:              PicC_fullinst.mph
% Version:            COMSOL 5.6.0.401
% Date:               Mar 2 2022, 10:09
% Table:              Table 3: Tsense - Point Evaluation 1
% Time (h)               Temperature (K), Point: 619Temperature (K), Point: 635Temperature (K), Point: 643Temperature (K), Point: 651Temperature (K), Point: 666Temperature (K), Point: 670Temperature (K), Point: 779Temperature (K), Point: 803Temperature (K), Point: 847Temperature (K), Point: 875Temperature (K), Point: 897Temperature (K), Point: 901Temperature (K), Point: 915Temperature (K), Point: 939Temperature (K), Point: 980Temperature (K), Point: 992Temperature (K), Point: 1231Temperature (K), Point: 1262Temperature (K), Point: 1273Temperature (K), Point: 1431Temperature (K), Point: 1449Temperature (K), Point: 2363Temperature (K), Point: 2509Temperature (K), Point: 2569Temperature (K), Point: 2615Temperature (K), Point: 2662Temperature (K), Point: 2701Temperature (K), Point: 2744Temperature (K), Point: 2941Temperature (K), Point: 3031Temperature (K), Point: 3090Temperature (K), Point: 3463Temperature (K), Point: 3482Temperature (K), Point: 3498Temperature (K), Point: 3506Temperature (K), Point: 3514
0                        283.00695261760677       283.0071783406471        283.00742960649006       283.0077927745456        283.006336343652         283.0063130650476        283.0003817721745        283.0000670757307        282.9957834215974        282.9969134138543        282.9961934166024        283.0030003267783        282.9958561407961        282.9974983259578        282.9955651163671        282.99415928678377       283.00259597055276       283.0027768754595        283.0025492240496        282.9978891297041        283.00230470477516       283.0016640292006        283.0065234396257        283.0066787561308        283.00662143852287       283.0053816910775        283.00565909493133       283.0050149999495        282.9352267011629        283.0000004458094        282.93650281519314       282.9978303609901        282.99881825229113       283.0044687789756        283.00475164740095       283.00502896661027
1.5                      289.7604616631745        294.4755312682883        296.7629004442252        300.3245199321488        299.1107440638251        298.9266680387131        270.2399661675485        269.4310814270014        281.203585873611         287.4929572926579        287.65229879366746       300.19979380870603       296.7204080976014        294.2112803593277        282.7706499519576        282.087518866289         307.29452491194286       307.64774551992144       307.96947499159415       281.0130674894671        301.348115662737         317.39367457177525       306.2352511577965        306.2919609430655        306.8201598461222        318.2169311037431        318.1965166843096        317.5399511475026        233.76733906306077       273.9149384657873        239.62545916829902       281.0382042981058        276.2474589393656        290.3063108197057        282.3679207254023        287.2848380046363
3                        277.2789458788864        296.0553777929722        298.8160255237335        303.062205283999         300.4777148071794        300.3372512255106        279.98712455741236       278.76031537467253       291.4273893357024        298.76282017509357       303.7828394163002        320.00822223916595       314.8769118499309        314.20776358775254       294.8136059995708        294.0979740604353        326.24475916684133       333.4987510415824        331.6881506547361        291.53393987334476       328.49107861904673       332.1798381667607        314.6027116031964        314.83027410421863       315.2240239375118        343.16483940284826       343.75888132556935       342.0731695843829        237.18855573622807       274.2103507564003        245.3674956801391        292.6952346717018        283.239950967323         280.7794094165932        282.02200775114704       286.76999249585907
4.5                      275.4198348467919        290.33714752489266       300.87835037790705       298.2066299223788        301.0457138480015        300.95803834077645       284.29014884250455       284.00282117318096       294.778770331247         303.39663751757035       312.8314402844211        327.5689006871159        323.43674708151934       326.5119365591083        305.9428468147801        305.6056690918108        340.9085147800956        349.75011904978516       345.5435332551346        302.2283662190115        340.4566558018959        339.8490004203855        318.7594307904189        319.34873806985803       319.6428848276253        358.8283699444319        360.20685785646884       357.78682660835835       239.98060767629448       274.9221845529405        249.75076853302426       303.41117956975677       294.37559344755255       288.86257493746336       282.6216328803956        287.59454331747696
6                        281.2754837125418        289.12563653601194       293.6156914604384        290.9765308445487        301.417116566236         301.3887917292009        284.6067330693292        284.52737086598466       293.4755821531078        303.8133470369115        314.80071966742315       329.60392806291907       326.55738921605376       332.8973970291884        312.86523094284695       312.7974629085454        351.4205970541634        358.8825615854088        353.9327813345193        310.073633077102         347.6147025112102        344.99706668064454       321.4404267210661        322.3903292261807        322.64693990603274       369.3720857088594        371.4468623993596        368.5688089956694        242.06728232695784       274.49834245209655       252.97840277079828       310.8776669565042        294.0230937713559        289.49090193076074       289.4253090995136        288.3551440903587
7.5                      280.7123714278112        286.32359063030776       284.7432145082918        288.3033430410659        301.59957184352425       301.6080068168282        274.5454697728464        274.51631082027154       282.1554434151222        294.4300558371395        303.00966863195305       316.85036996438953       314.1923603766961        320.27898220729736       304.4420527746397        304.5628313097682        350.988349276438         355.3558449498137        351.9565351878334        304.76471264529073       333.1069583832343        348.60261606427235       323.2243743607227        324.3312707638153        324.6479806157826        376.41155447656416       378.9104096567719        375.8452795480954        243.77229593516708       272.1499701432729        255.0460406002553        305.1894643407775        284.32743896109423       281.19893523228137       289.09973200805007       287.87315369823517
9                        274.4420337760049        279.22257834009986       281.7383921593783        287.0813897075107        301.65777439137963       301.67599424380455       263.78411967341555       263.75998409996873       271.0485934985559        284.7638518595542        290.183642470955         302.40775756190385       299.76771687569124       304.42819477323576       292.3689796343747        292.5530408270855        344.40066178626495       346.6160174417987        344.9948985690934        294.63339934191913       311.4936892232615        351.2977360041909        324.5079754489793        325.59740998217615       326.02267669953517       381.21336566569016       383.8887326564086        380.8074962516302        245.3024990919456        269.3412637719656        256.50272904206184       295.01084453428695       275.41473725165906       277.7471065817686        282.88086770363697       286.84913744252816
10.5                     272.44400452435366       277.02762908030917       280.70281748330734       286.60378757485523       301.6916943105316        301.7129248064398        260.07454184993463       260.052596166986         267.27635589278043       281.73215607809965       285.6324259247233        297.4343740420093        294.6700436192098        299.09355966216395       288.14722969550917       288.3431717673939        340.1331184876788        341.1599316574492        340.5468519597469        289.55739486448465       301.81302309577484       353.4440034127799        325.51308492636554       326.5518989615502        327.06709755460065       384.601371159832         387.3401624344989        384.30038396741577       246.63630485320417       267.61750550982646       257.7859044364824        289.9072540596207        272.70207486948215       276.56730961622935       280.97608930930073       286.43919902037385
12                       271.79748622483305       276.3321234082751        280.350951330245         286.46022669313413       301.7310427197739        301.7534718603139        258.7444321972163        258.72341441573303       265.94531028631695       280.7178131132388        283.8926786428554        295.5619067804314        292.74577684822924       297.1018942138453        286.5985398616906        286.79686177342944       337.4991819552653        337.86485040125376       337.8212220633504        286.9685198916443        297.3062430794313        355.19282606624137       326.32867557072575       327.32438818034495       327.90147273201313       387.06661184888605       389.8265322064703        386.8334461968582        247.77060679959234       266.65084291042234       258.9169749621974        287.3026522690694        271.8475411946548        276.1604659454634        280.3880674793933        286.3176472654071
13.5                     271.5937619059962        276.12117468614764       280.24748513500873       286.4596751179189        301.7767962694159        301.7998755374641        258.2682565839973        258.24759690966175       265.4795580351537        280.3737937555914        283.2074922171084        294.8251501479948        291.99490920472965       296.3222405375957        286.0278520014681        286.22671919139304       335.9291080421867        335.92882035227234       336.20420942117534       285.6472576166419        295.17861979002663       356.62743092681654       326.998285580001         327.9640881683168        328.58157231665996       388.9107280945691        391.67849441487976       388.7215176139024        248.7208424813227        266.1305590089256        259.88719167017894       285.9732149141609        271.584961117077         276.0284538507653        280.223585109303         286.3245242453833
15                       271.5309437667829        276.0634098338917        280.2317262407628        286.51252408528796       301.8242603838995        301.8477929622076        258.0953773777517        258.074855207498         265.31744952763614       280.2542043054637        282.93325570389527       294.5298952598044        291.700465888355         296.0134647248522        285.8276230371728        286.02674738840363       335.0141988367329        334.8118848476752        335.2651634064509        284.97055326480483       294.16613221689954       357.80489496298674       327.5491487021399        328.49534200898665       329.13934430098294       390.326059681747         393.0989054344299        390.1658009253228        249.50853885946566       265.8540480132009        260.70132112644023       285.29263315523895       271.5058306676294        275.99194937769335       280.19232954740534       286.3802893357354
