% Model:              PicC_fullinst_stationary.mph
% Version:            COMSOL 5.6.0.401
% Date:               Jul 5 2022, 06:51
% Table:              Table 1: Tsense - Tsense Eval
% Time (h)               Temperature (K), Point: 277Temperature (K), Point: 282Temperature (K), Point: 446Temperature (K), Point: 447Temperature (K), Point: 499Temperature (K), Point: 594Temperature (K), Point: 696Temperature (K), Point: 882Temperature (K), Point: 883Temperature (K), Point: 1236Temperature (K), Point: 1237Temperature (K), Point: 1455Temperature (K), Point: 1456Temperature (K), Point: 1688Temperature (K), Point: 1798Temperature (K), Point: 1800Temperature (K), Point: 1853Temperature (K), Point: 1996Temperature (K), Point: 2017Temperature (K), Point: 2020Temperature (K), Point: 2059Temperature (K), Point: 2060Temperature (K), Point: 2090Temperature (K), Point: 2092Temperature (K), Point: 2136Temperature (K), Point: 2137Temperature (K), Point: 2213Temperature (K), Point: 2214Temperature (K), Point: 2339Temperature (K), Point: 2352Temperature (K), Point: 2359Temperature (K), Point: 2490Temperature (K), Point: 2491Temperature (K), Point: 2696Temperature (K), Point: 2707Temperature (K), Point: 2746Temperature (K), Point: 2871Temperature (K), Point: 478Temperature (K), Point: 483Temperature (K), Point: 597Temperature (K), Point: 598Temperature (K), Point: 636Temperature (K), Point: 637Temperature (K), Point: 642Temperature (K), Point: 644Temperature (K), Point: 713Temperature (K), Point: 734Temperature (K), Point: 737Temperature (K), Point: 776Temperature (K), Point: 777Temperature (K), Point: 803Temperature (K), Point: 805Temperature (K), Point: 849Temperature (K), Point: 850Temperature (K), Point: 923Temperature (K), Point: 924Temperature (K), Point: 954Temperature (K), Point: 963Temperature (K), Point: 970Temperature (K), Point: 1094Temperature (K), Point: 1095Temperature (K), Point: 1256Temperature (K), Point: 1267Temperature (K), Point: 1306Temperature (K), Point: 1388Temperature (K), Point: 1455Temperature (K), Point: 1551Temperature (K), Point: 1725Temperature (K), Point: 1726Temperature (K), Point: 2267Temperature (K), Point: 2268Temperature (K), Point: 2498Temperature (K), Point: 2649Temperature (K), Point: 2815
0                        259.918829718868         259.91618538498415       271.8566904978759        271.71539223050524       273.38801132683193       279.9999978260478        279.9654469419764        273.11882887096925       273.07167777262003       259.89379338055255       259.89467198583753       279.9999990052206        280.0000074329029        279.99976243782476       260.0014050683926        260.0013975628753        279.9652001970389        273.99989044801356       260.00135655714655       260.0013139714192        260.00176900641003       260.00180817123794       260.00117561652416       260.00118058564607       260.0013021506847        260.00125651218735       260.0012534688549        260.0011301493628        260.1035882475986        259.9990870605087        259.99912642889115       260.0000652407067        259.9995787308282        265.05452000787596       265.1005338169758        265.5611281280877        274.0017043714399        233.33381135270128       231.78656529742          236.2544076749898        235.53204416626906       231.76595993039493       229.65427966189154       236.91129478827426       233.58917779128976       235.92306136270267       231.98243922132647       233.2199027910502        233.0708766742958        231.22153056920354       226.78160119148737       223.9137966195561        229.71649867575556       227.72431277549722       223.88953310728525       222.087504087959         212.54668146094656       214.43524968129142       213.53038309655057       211.22369500584688       209.91093160371054       250.08721454694125       250.0222533204705        247.93974229496163       144.55204231709504       145.0771978147536        145.19694440006157       144.558262132409         144.55589564293774       145.10663518332228       145.0966703137285        145.1976722820291        145.21283238614734       216.79975494130687
0.25                     268.7812214240901        268.5473542279872        264.9221518327681        264.7203550465856        271.84689507886736       277.105210887149         277.23107126665144       271.7705656807184        271.75140173051324       270.6448082440809        270.47722041161296       277.13178864734533       277.13295899493306       277.40108089971653       261.55526894472433       261.15956698538474       277.2516934634629        264.7366339467698        260.77158408389096       260.789047967123         261.5756768343453        261.4303615783569        259.95347360880874       259.58564736414604       260.2442583225815        260.09492549197546       259.25556046246624       259.1104320651754        279.0941941894254        258.56723659824456       258.4388782377437        255.21867099731537       255.11415624806997       263.8939404124884        263.84916391675847       262.453178822709         275.4582848292542        233.35831495002677       231.81088650154163       236.29791247119041       235.5679967913373        231.77805913977372       229.66545921830098       236.94763830746876       233.61342531663266       235.97847672789948       232.00954723645748       233.2447787864166        233.07078651244825       231.21926197310458       226.78947379687656       223.91239522904607       229.71302064879035       227.71662307765268       223.88261890745943       222.08204737556213       212.55438706696577       214.4293757984545        213.52915660081055       211.2130065069006        209.89823210883097       250.0934045544099        250.02695791368848       247.95399187144798       144.5260350819436        145.06192810073148       145.16959856513625       144.53407984018963       144.53168138616965       145.09174775946042       145.08176587554317       145.17366140768257       145.18541513603367       216.8031479857843
0.5                      269.2091176643551        268.89876021030966       265.28203285450564       264.9511866313741        271.84621392269656       275.4423953986914        275.4059832335563        271.7663906024772        271.7380130647841        270.12127684591974       269.8984902598605        275.4697036859712        275.4611453803449        275.57719919209285       261.7601407529932        261.0822244360625        275.4229151487069        262.86632697640215       260.1537376005313        260.1632805241882        261.41060347144423       261.15446991188855       258.9250612714979        258.2936489045748        259.22254918438733       258.95741517091034       257.486420238804         257.2349583284014        280.1531581400143        258.0181743349722        257.8521436722342        251.45152347999996       251.26934038002426       265.2232556109244        265.1789866379828        263.48057029877043       275.9788951375426        233.38342208996002       231.83534923602556       236.32890476000776       235.59674126479928       231.79338961215183       229.680956433843         236.9765522782454        233.63336181241164       236.01911987989726       232.03129995721753       233.263662651847         233.07430993730352       231.2199452487502        226.79647077008642       223.91485692704262       229.71077479998718       227.71142283806262       223.87515197082317       222.07385053385022       212.5560372710584        214.42559722700204       213.5282156805184        211.20307527947665       209.88711363013792       250.1017256583554        250.03505650169157       247.96621874441715       144.50145371139402       145.04237814597155       145.15052667775103       144.50964061649057       144.5072341639124        145.0725108686553        145.06257915649277       145.15482324500667       145.16664631800495       216.80543803858447
0.75                     268.9517071262926        268.6954986721326        265.3867441101585        265.06785408223163       271.4403316786715        274.1397684106318        274.02013858687206       271.35111570574446       271.3320875283369        269.3437379351705        269.1821642132161        274.1598157501836        274.1492339241975        274.18323987252967       261.4835367805264        260.7667572072029        274.02987622755427       261.6987925380944        259.41483199857504       259.27750754309903       260.8006037163951        260.5559930861349        257.78370812818883       257.1246756175921        258.04389553106694       257.8014174831271        255.77446316665336       255.5483508929993        280.4500430923091        257.3380184385873        257.25942536671545       248.65195475853946       248.49636260995632       266.0375694265469        265.9995716610974        264.12379535912436       276.3885158406198        233.4065263430095        231.8581740898621        236.35404193767053       235.62118160070554       231.8119106661534        229.69967795000753       236.99875329346588       233.6501956207314        236.0465384523004        232.04753666081334       233.27839180777414       233.08237901107054       231.2259387965936        226.80158422321415       223.91729833718122       229.71208487060775       227.71061181256553       223.87049551513044       222.0682478507455        212.5557159252008        214.4227082587771        213.52659025861774       211.19554862655548       209.87894005391414       250.11174746050133       250.04502986274          247.9774500872254        144.4777390438961        145.02183338084043       145.13045011498036       144.4859377917898        144.48352665758523       145.05218193567083       145.04229107154353       145.1349344094746        145.14682660829146       216.8075940073051
1                        268.4268462549897        268.29117551312214       265.29462774856603       265.0615560070627        270.8488172812279        273.0062648938252        272.8427938737639        270.74914348553995       270.7494664242099        268.51974353459406       268.478484842475         273.0155579318688        273.0078912746582        272.99361899920166       260.9907261378889        260.3707302713083        272.8452333606394        260.81729370373756       258.6795544307395        258.30755002573494       260.0079997034465        259.8485366425112        256.6181074609384        256.06622068827045       256.8292536750113        256.6932647201203        254.14514945149233       254.023268423436         280.47204336802486       256.5775219037388        256.6580733335829        246.38311480840508       246.3175149611364        266.5775462284998        266.5498337825532        264.54990084317575       276.74354967263514       233.4289706423593        231.88036202262126       236.37825621799436       235.64477766784745       231.83039129906658       229.71834068101825       237.01993351994327       233.66653276387578       236.0721198124361        232.0629444932907        233.2924497117553        233.090884795729         231.2325436687013        226.80646244829086       223.9197416983829        229.7139371088708        227.71051637039687       223.86646757826188       222.06332415541945       212.55528931340095       214.42001108257438       213.52501458619818       211.1885925453979        209.87139826093855       250.12189831005173       250.0551377531362        247.9885761424962        144.4541771858581        145.0011711408239        145.11022267044055       144.4623849242703        144.459969520751         145.03172014039123       145.02186704698502       145.11488082314474       145.12683870440418       216.80963891722874
1.25                     267.89311377666047       267.890738998621         265.15271381558284       265.01968207498254       270.2546835781462        271.92977265561115       271.727901313485         270.1449626851177        270.1676939104501        267.7296795861507        267.82495436816873       271.9279875613324        271.9259813147549        271.86608773778386       260.49473245159254       260.01849601037964       271.72529152682375       260.0015822451293        258.0143476762083        257.3828783915257        259.2538342213518        259.206140292042         255.51858430486968       255.117250530595         255.69525505790466       255.69706013131554       252.63629762890935       252.6470180308193        280.4765519773096        255.85088088043238       256.111657451964         244.3201284860844        244.36804735522503       267.0399862753225        267.02323171216784       264.91431131762783       277.0749782131904        233.44795018478612       231.89920611972423       236.3976252872888        235.6639413239768        231.84865972126556       229.73669478997184       237.03575460551946       233.6802624148495        236.0880558081676        232.0740007523966        233.30298354301996       233.10168331256756       231.2423579931968        226.81010572609966       223.92219530266576       229.71863572725678       227.7141777407025        223.86573936521992       222.0619651459314        212.55431005540464       214.41832081448817       213.5237000985545        211.1846319659992        209.86717333001613       250.13272665847543       250.0659519226083        247.99914943819573       144.43141757748484       144.97989215765898       145.08920309661255       144.4396193319524        144.43720182375458       145.0105608180622        145.00072933947766       145.0939622951267        145.10596778110445       216.81110076846812
1.5                      267.3163172806147        267.509168798589         264.76907552643115       264.80511797214035       269.6478354002162        271.13002111432854       270.91616021245227       269.5300611283167        269.5900405726746        267.1043187842131        267.41485363079016       271.1155859677943        271.13256591867093       271.03994811143207       259.98328782747706       259.8788375009471        270.9194175307073        259.505211882939         257.6892744213471        256.6780307496003        258.68625472855746       258.8795547068542        254.739810603072         254.69973472294834       254.95270996895042       255.2442675920853        251.71218463219853       251.99321929543072       280.39615359839655       255.28857923155235       255.8319093110436        243.25638438097556       243.53202246632802       267.126052099672         267.12352013530784       264.97924561166155       277.2918233770663        233.46692972721297       231.91805021682723       236.41699435658327       235.68310498010612       231.86692814346458       229.75504889892537       237.05157569109568       233.6939920658232        236.10399180389908       232.08505701150253       233.31351737428466       233.1124818294061        231.2521723176923        226.8137490039085        223.92464890694862       229.72333434564268       227.7178391110081        223.86501115217794       222.0606061364433        212.55333079740828       214.41663054640193       213.52238561091082       211.18067138660052       209.86294839909374       250.14355500689916       250.07676609208042       248.00972273389525       144.40865796911157       144.95861317449408       145.06818352278458       144.4168537396345        144.41443412675812       144.9894014957332        144.9795916319703        145.07304376710863       145.08509685780473       216.81256261970753
1.75                     266.7395207845689        267.127598598557         264.38543723727946       264.59055386929816       269.0409872222862        270.33026957304594       270.1044191114195        268.9151595715156        269.01238723489905       266.47895798227546       267.00475289341153       270.3031843742563        270.339150522587         270.2138084850802        259.47184320336163       259.7391789915145        270.11354353459086       259.00884152074866       257.3642011664859        255.97318310767486       258.1186752357632        258.55296912166654       253.9610369012743        254.28221891530168       254.2101648799962        254.79147505285502       250.78807163548768       251.33942056004216       280.31575521948344       254.7262775826723        255.55216117012324       242.19264027586675       242.69599757743097       267.21211792402147       267.22380855844784       265.0441799056953        277.5086685409422        233.48590926963982       231.93689431393022       236.43636342587772       235.70226863623543       231.88519656566356       229.7734030078789        237.0673967766719        233.7077217167969        236.11992779963057       232.09611327060844       233.32405120554935       233.12328034624466       231.26198664218782       226.81739228171733       223.9271025112315        229.72803296402867       227.7215004813137        223.864282939136         222.05924712695523       212.55235153941197       214.41494027831573       213.52107112326712       211.1767108072018        209.85872346817132       250.15438335532286       250.08758026155252       248.02029602959476       144.3858983607383        144.93733419132914       145.0471639489566        144.39408814731655       144.3916664297617        144.9682421734042        144.95845392446293       145.0521252390906        145.064225934505         216.81402447094692
2                        266.1627242885232        266.746028398525         264.0017989481278        264.3759897664559        268.4341390443562        269.5305180317634        269.29267801038674       268.3002580147145        268.4347338971236        265.85359718033783       266.5946521560329        269.49078278071823       269.545735126503         269.3876688587284        258.96039857924615       259.5995204820819        269.3076695384744        258.51247115855824       257.03912791162475       255.2683354657494        257.5510957429689        258.22638353647875       253.1822631994766        253.86470310765503       253.46761979104195       254.33868251362478       249.8639586387768        250.68562182465357       280.23535684057043       254.16397593379224       255.27241302920288       241.12889617075794       241.85997268853396       267.29818374837095       267.32409698158784       265.109114199729         277.7255137048181        233.5033962719584        231.95426636663612       236.4541484010084        235.71988486376134       231.90224421996695       229.79052445554828       237.0818176831798        233.72054269439303       236.13395827718364       232.10617187997465       233.33368868349632       233.1338340255925        231.27177826805172       226.82088333347656       223.9296483299855        229.73305905647612       227.72571197645854       223.86434860160062       222.0588009975197        212.55155806837706       214.4136605169671        213.52009010995437       211.17366115111437       209.85546797118965       250.1650071033051        250.09819133454891       248.03057738735023       144.36340301149195       144.91601667783868       145.02606457194412       144.37158693628527       144.36916354580825       144.9470222361477        144.93725134545974       145.03110493214012       145.0432472180114        216.81523713943028
2.25                     265.58592779247743       266.364458198493         263.6181606589762        264.16142566361367       267.82729086642615       268.7307664904808        268.48093690935394       267.68535645791343       267.85708055934805       265.2282363784002        266.1845514186543        268.6783811871802        268.752319730419         268.56152923237653       258.4489539551307        259.4598619726494        268.50179554235797       258.01610079636794       256.7140546567636        254.56348782382398       256.9835162501747        257.899797951291         252.40348949767892       253.44718730000838       252.72507470208768       253.8858899743945        248.93984564206596       250.03182308926495       280.1549584616574        253.6016742849122        254.9926648882825        240.06515206564913       241.0239477996369        267.38424957272036       267.42438540472784       265.17404849376265       277.94235886869404       233.51771162654688       231.96851032499814       236.468567176041         235.73421280550497       231.91669774249212       229.80502649798873       237.09326320916747       233.73143274106172       236.14393952860755       232.1141104836439        233.34142141064305       233.1438674252727        231.28152165932354       226.8240509048804        223.93239010449065       229.73878103130426       227.73109248688687       223.86610124951673       222.0602947381959        212.55115939463528       214.41325308243586       213.51981772959482       211.1725472070634        209.85427252133198       250.17519607534916       250.10837082753446       248.04023837697466       144.34146921289025       144.89461728740645       145.00479561316448       144.34964753548806       144.34722338957113       144.92567349217026       144.91591091452784       145.00986834495836       145.02203944098076       216.81592029455686
2.5                      265.02295361462274       265.9904684881201        263.20185992288884       263.9129043699552        267.2579219680505        267.9979917206833        267.7382122194658        267.1114127977166        267.3186300635566        264.6598977881633        265.82206822419465       267.9350743100742        268.0291748664271        267.80654997303          257.9515253784022        259.3542988616462        267.76825430009507       257.55385875522796       256.4429197552852        253.9123076840649        256.4905198274933        257.6554182991143        251.70510418855605       253.1263115438146        252.09235541335192       253.55288356178514       248.16204747255628       249.53249792798343       280.0806172955048        253.09805057991753       254.77438907053323       239.18704365145678       240.38035300641542       267.3995409029151        267.4535593861238        265.1776520874898        278.13018251800355       233.53202698113543       231.98275428336015       236.48298595107363       235.7485407472486        231.9311512650173        229.81952854042922       237.10470873515519       233.74232278773044       236.15392078003143       232.12204908731314       233.34915413778978       233.1539008249529        231.2912650505954        226.82721847628423       223.93513187899578       229.74450300613242       227.73647299731513       223.86785389743284       222.06178847887205       212.55076072089346       214.41284564790467       213.5195453492353        211.1714332630124        209.8530770714743        250.18538504739325       250.11855032052          248.04989936659908       144.31953541428857       144.87321789697424       144.98352665438483       144.32770813469085       144.325283233334         144.9043247481928        144.89457048359594       144.98863175777657       145.00083166395012       216.81660344968344
2.75                     264.48661600773437       265.63108690989765       262.72261637404705       263.5989452018034        266.7607782547568        267.3942858597395        267.1284869662767        266.6163978602164        266.855726177831         264.20144497595714       265.55134735524825       267.3249177694161        267.4414462176482        267.1887017028211        257.48110670230886       259.3144399608437        267.1741033181756        257.157384368475         256.27572782182574       253.36454856314467       256.1412501814985        257.56945521196127       251.1616329174942        252.99166790535403       251.67127809964546       253.45071336770306       247.66620817740335       249.330854115245         280.017948800703         252.7075033643257        254.67457470591884       238.66666815779266       240.10758442545765       267.27844484786135       267.3456908795626        265.06306714521713       278.2620796851117        233.54634233572395       231.9969982417222        236.49740472610625       235.76286868899223       231.9456047875425        229.83403058286964       237.11615426114287       233.75321283439916       236.16390203145534       232.1299876909824        233.35688686493657       233.16393422463312       231.30100844186725       226.83038604768805       223.93787365350087       229.75022498096058       227.74185350774343       223.86960654534897       222.06328221954823       212.55036204715165       214.41243821337346       213.51927296887575       211.17031931896142       209.8518816216166        250.1955740194373        250.12872981350554       248.05956035622353       144.2976016156869        144.851818506542         144.9622576956052        144.30576873389364       144.30334307709688       144.88297600421535       144.87323005266404       144.96739517059478       144.97962388691948       216.81728660481005
3                        263.95027840084595       265.27170533167515       262.2433728252052        263.28498603365165       266.26363454146315       266.79057999879575       266.5187617130876        266.1213829227161        266.39282229210545       263.7429921637511        265.2806264863019        266.71476122875805       266.85371756886934       266.5708534326123        257.0106880262155        259.27458106004116       266.5799523362561        256.760909981722         256.10853588836625       252.81678944222438       255.79198053550368       257.48349212480827       250.61816164643227       252.8570242668935        251.25020078593894       253.34854317362098       247.1703688822504        249.12921030250652       279.9552803059012        252.31695614873388       254.5747603413044        238.14629266412854       239.83481584449984       267.15734879280757       267.23782237300145       264.94848220294443       278.3939768522198        233.5606576903125        232.0112422000842        236.51182350113888       235.77719663073592       231.96005831006767       229.8485326253101        237.12759978713055       233.76410288106788       236.17388328287922       232.1379262946517        233.3646195920833        233.17396762431332       231.31075183313908       226.83355361909187       223.940615428006         229.75594695578874       227.74723401817175       223.87135919326508       222.06477596022438       212.54996337340984       214.41203077884222       213.5190005885162        211.1692053749104        209.85068617175898       250.20576299148138       250.1389093064911        248.06922134584795       144.2756678170852        144.83041911610977       144.94098873682555       144.28382933309643       144.28140292085976       144.8616272602379        144.85188962173214       144.94615858341302       144.95841610988887       216.81796975993663
3.25                     263.4139407939576        264.9123237534527        261.7641292763634        262.9710268654999        265.7664908281695        266.186874137852         265.9090364598985        265.62636798521595       265.92991840637984       263.28453935154505       265.0099056173555        266.10460468810004       266.2659889200904        265.95300516240343       256.5402693501222        259.2347221592387        265.98580135433673       256.364435594969         255.9413439549068        252.26903032130414       255.44271088950887       257.3975290376552        250.0746903753704        252.72238062843294       250.82912347223245       253.24637297953888       246.67452958709742       248.92756648976805       279.89261181109947       251.92640893314206       254.47494597669          237.62591717046442       239.5620472635421        267.0362527377538        267.1299538664403        264.83389726067173       278.52587401932794       233.574973044901         232.02548615844623       236.5262422761715        235.79152457247955       231.9745118325929        229.86303466775058       237.13904531311823       233.7749929277366        236.18386453430313       232.14586489832095       233.37235231923003       233.18400102399355       231.32049522441093       226.8367211904957        223.94335720251112       229.7616689306169        227.75261452860005       223.87311184118118       222.06626970090053       212.54956469966803       214.411623344311         213.5187282081567        211.16809143085945       209.84949072190128       250.21595196352544       250.14908879947663       248.07888233547237       144.25373401848353       144.80901972567753       144.91971977804593       144.26188993229923       144.25946276462264       144.84027851626047       144.83054919080024       144.9249219962312        144.93720833285823       216.8186529150632