% Model:              PicC_fullinst_union.mph;;;;;;
% Version:            COMSOL 5.6.0.401;;;;;;
"% Date:               Jun 29 2022; 11:32";;;;;;
% Dimension:          3;;;;;;
% Nodes:              2592;;;;;;
% Expressions:        4;;;;;;
"% Description:        X-coordinate; Y-coordinate; Z-coordinate; Temperature";;;;;;
% Length unit:        m;;;;;;
% X;Y;Z;X (m) @ t=0;Y (m) @ t=0;Z (m) @ t=0;T (K) @ t=0
-0.056994274;-0.3048;0.352716978;-0.056994274;-0.3048;0.352716978;260.0028471
-0.056994274;0.3048;0.352716978;-0.056994274;0.3048;0.352716978;260.0022579
0.998863899;-0.3048;0.962316978;0.998863899;-0.3048;0.962316978;260.0030958
0.998863899;0.3048;0.962316978;0.998863899;0.3048;0.962316978;260.0029163